170
Lattice="12.473140 0.000000 0.000000 0.000000 12.475581 0.000000 0.000000 0.000000 12.454651" Properties=species:S:1:pos:R:3:forces:R:3 energy=-825.57632846 stress="0.004334147427848924 -0.0008849720571331408 -0.0005458790052518035 -0.00088490587217037 0.00814730031666681 -0.001375733119173474 -0.0005455969826619505 -0.0013758817482302885 0.0031013045225431863" pbc="T T T"
Li	9.780781002907744	3.7389255875901872	9.178932842858867	-0.64350521	0.27698255	0.01847579
Co	6.97387108176511	7.498765613855311	2.818892852290285	0.68569988	0.82612127	1.77983653
H	3.431011094661596	3.424855574249312	3.0245928668794293	0.02273966	-1.92492796	-0.23575712
H	2.624900987683628	0.8230943130499375	2.5738028875717722	0.58975078	0.83961955	0.07210119
H	1.226400919651335	0.177194423168125	2.531812904562271	0.82278891	-0.54643238	-0.01519619
H	4.438791046912597	2.1564856846080627	3.2013828971707188	-0.56133226	0.1815555	0.00650467
H	6.613691075324465	1.1877365901039374	2.3187528141419618	0.15759989	-0.41903774	-0.17203618
H	6.786710990907605	1.778535580278875	3.7962928634254824	-0.68892779	-0.19058421	-0.76315578
H	7.588280999620574	3.582665564027	1.0109768775968482	0.10188225	0.80873904	-0.01540826
H	11.308291133188542	0.80829440625725	3.4801729048463064	-0.69389402	0.97004453	1.25178672
H	11.125481174672313	0.7667943852291249	1.913062868670103	0.38357562	-0.13744612	0.6479486
H	8.362481197012112	0.8353096536750625	0.644560804909834	-0.77725574	-0.74367792	0.0835297
H	1.463430994525259	6.422675620229687	2.683662870466332	-1.02399542	1.66812511	0.96543778
H	0.229784303058433	7.471765586646624	2.399352837053998	0.32630789	0.20472088	-0.21007325
H	5.044710997227595	5.953995603701749	2.185312814716613	-2.36997954	-0.33448789	-0.5633146
H	6.451811045896036	5.374755613822375	1.6629428441733811	-0.08106574	-0.4557989	-0.23496369
H	7.009101091783358	7.658735625770625	0.314920326623752	0.20183365	0.57267224	-0.20112931
H	8.388611053476202	5.152465582354062	3.9168728132705466	-0.02190322	-0.60219955	0.10217365
H	10.443551155901924	4.614245677892125	1.181652172580466	-0.10121657	0.2633802	-0.33938786
H	10.101481151035271	6.017445661404374	0.510752147823765	-0.31927148	0.00367748	-0.79979965
H	9.280021098924639	5.892525670255125	2.7718628457820147	-0.48918802	-0.30452685	0.66825623
H	11.223581174244803	7.8683056793522494	0.7956428170517331	2.0015132	1.07119623	0.22153923
H	3.517851091740212	11.164226869917686	0.032852130337418003	0.24173538	0.03490452	0.21081799
H	3.070301104498102	11.288366887727186	1.5642521920265808	0.12968633	0.01793604	-0.46427551
H	2.262931085638633	9.99213565674775	3.817052150665735	-0.05617726	0.02967059	-0.09928919
H	1.7812310128481341	8.500125628235311	3.889952085782496	-0.36118846	-0.5566481	-0.58259422
H	0.297767781128072	8.408595657011	0.40472682733322796	-0.93761871	0.66739971	0.71937381
H	4.235951096366783	8.696625639120375	3.056072868349228	1.64769758	1.07860046	0.20036294
H	7.951310993842668	8.895375621083874	0.9240819005815111	0.05256961	0.25776749	-0.44473127
H	4.911260996029096	9.610905597352124	1.992362875142073	0.17848602	-0.06422819	0.91130193
H	7.668281100862552	11.819153840880373	0.882712906455912	-0.07810094	2.0820252	-0.64238819
H	9.262501076877378	10.523606895532499	1.1633521806674352	0.88460094	-0.45130402	-0.37488614
H	11.195241077354993	9.5320556821545	1.927732828090112	-0.98959593	1.44015412	0.24649122
H	9.185911007407338	9.548065595572623	3.158872807947986	-0.65614145	-0.3732377	0.12059493
H	10.838441042418646	11.05487565563356	2.494552824249109	1.07888821	1.57454421	0.49587237
H	2.765631061832893	2.7455956058375626	6.545522868862443	0.32219387	1.69873023	-0.83814722
H	2.751401079949808	0.612399585818625	6.539502788900091	-0.0988655	-0.53772037	-0.93057232
H	1.012703100648471	3.94514557333875	5.966512883330821	1.02650395	0.33227228	-0.18954385
H	3.00114103512283	3.4857456426794373	5.138512883760487	0.17655675	-0.38196391	-0.31749412
H	3.7536510655374737	0.9489946353738125	7.682822909381645	-1.61597974	0.9332883	-0.80756851
H	9.836581091921907	2.37001561243425	5.092932847686712	-1.40569853	0.92475546	-0.26743729
H	11.349541054813251	2.2903955796060624	5.443402857442996	-0.72851881	-0.27926316	-0.46814985
H	12.059441092406681	3.7369756542408124	7.743762892524211	-0.18064245	-0.05230745	0.41613317
H	10.26174104429611	0.7714716053955625	6.566522904500728	0.08930009	0.67474663	-0.652371
H	3.838791098351861	5.347985636331938	6.34805288745586	-0.03310849	0.72762251	0.65979636
H	3.944171046143716	6.770855619289438	7.2694929075308865	0.02484784	-0.71262505	-0.86552215
H	7.827691074356979	5.097125650510438	8.283212797397903	-0.23028771	0.05650096	0.07171907
H	5.559360990026061	5.354865669879687	8.04200283001196	-0.42308471	0.05559563	0.25253407
H	7.038911023502551	7.73092557667375	5.579632823171651	-0.24762349	-0.45525812	-0.74135168
H	5.802681019989613	6.8467856246954995	5.157362873048431	0.19330571	0.78674903	-0.1271304
H	12.246041014542294	6.626185660219125	4.257422818290785	0.54092815	0.22568099	-0.7043516
H	8.56556100604205	4.45958564762425	7.0858128399258495	-0.29154597	-0.59907239	-1.31442068
H	8.575511079362622	6.681355674646124	7.228002854200484	-0.33612776	0.8465106	-0.85691353
H	10.720041007333407	6.273245603133437	4.587642811473939	-0.97346629	-0.14841691	-0.70736506
H	12.113059130291749	4.828585645208875	5.746582807584392	0.55369575	-0.0299577	-0.19969113
H	11.350221090411504	7.183035599673312	6.2351528488719365	0.44241886	0.84407191	-0.00874657
H	9.18772110949865	7.9571955680724376	6.446532806912815	-0.66215744	-0.57640274	0.70000691
H	2.568891100452984	12.195475632344811	4.350052788313952	0.18705436	-0.02999368	0.07518801
H	2.908991097572243	8.942905589553375	7.802792830435424	0.40152491	-0.06970062	-0.02746253
H	2.8403210978715	10.616375567219125	6.565542848037144	-0.94199098	-0.24513713	-0.16504409
H	1.9264110044594749	9.504685629205937	6.080072893855338	0.14825999	-0.80607895	-1.57095767
H	0.10676508999996001	10.558475646103	6.652702860019377	0.22943168	0.1280158	-0.12028567
H	3.897481089195792	11.850375604784062	5.138612894605609	0.57203542	-0.07022104	-0.38006203
H	7.667991100355229	8.568976864084313	8.007242896280315	0.24909086	1.0492391	0.73218518
H	5.85824100105685	12.15007387328075	4.156842795632796	-0.0225168	-0.50994103	-0.15862892
H	5.587761082719751	10.525286857303625	4.304002838269265	-0.18961259	0.14196328	-0.74782163
H	6.966441081670342	11.033675650903811	5.6665128546061485	0.867434	0.13779359	0.34008866
H	7.849001060023626	10.094596857019125	7.77844286739836	-0.9782362	-0.88706586	1.01437653
H	8.252041021013088	9.485195652398124	4.449282851382569	-0.0635574	0.03675314	-0.33886679
H	12.155703174785435	10.574275595488688	8.118292796502754	-0.43285919	0.21898882	-0.25559782
H	11.369711120206158	8.669855661629937	7.117112871693033	0.11045371	-0.35216469	-0.7347579
H	8.470121028327286	11.533875597727311	6.120312873894981	-0.6343466	-0.48570322	-0.08031987
H	10.792341064997453	12.10514082180425	7.433172798855836	0.89340896	-1.1574648	-0.00628346
H	1.957001006360522	0.676978683624375	8.86487288350547	-0.46500382	0.52578391	0.61019088
H	1.0214009954344039	3.5789956222906874	10.879063530371349	0.39520018	0.37926301	0.66727662
H	1.242600909281814	1.366965655818125	10.209072819662255	0.77048969	-0.68172176	-0.70333569
H	4.479771049785543	0.036694427130625	11.090503519828601	-0.07936264	-0.51633815	-0.19130395
H	7.793351022884868	0.6143626185283124	9.213612817733015	0.49035787	0.38611179	-0.04974981
H	6.623651002425716	4.137655643828437	12.45183557530228	-1.26026175	-0.01113736	-1.3285999
H	5.367920990606043	3.034885621653187	10.936102841461182	0.17146425	-0.3044797	0.03016572
H	6.080951037976168	0.7506926515329999	10.252203524129369	-0.74124371	1.180146	0.96373637
H	6.286101014068501	1.0325446010515624	11.771298515473438	-0.51128654	0.1786242	0.17764277
H	11.990441053418893	3.343085624504312	9.438822793550697	0.19254664	0.21875566	-1.16345566
H	12.225641069177344	2.740785645486625	11.520663491170271	0.07020727	0.11346945	0.17656518
H	9.643741107257066	1.3442956533496875	10.252702831075933	-0.20939242	0.68651953	0.12349438
H	9.822571011498786	1.2423435815491248	8.699832819777574	-0.61311432	0.53241503	0.19885808
H	0.781828021488293	6.946965664935312	9.85621288698315	0.06563536	-0.24134194	-0.62554322
H	2.375531110577373	5.588995651733312	10.634402877462465	-0.11350298	0.42511552	-0.17419483
H	2.178251062231134	7.733095579276374	9.385482887358286	0.34082895	-0.37562314	-0.4833378
H	2.769821039055285	4.959945656155187	11.982102819558964	-0.17750011	0.15119588	0.95554691
H	6.496961068967215	7.115485566948688	10.77822357915325	0.90595232	-1.0380359	-1.12272598
H	5.548191043603709	8.213385621227188	11.103993525641293	0.49449649	-0.7700821	0.79582039
H	4.556571042203466	4.242795600905812	11.485902810159587	0.07748899	0.07390222	-0.35570916
H	5.842331011933696	4.990245599360312	9.637112789159367	-0.64360198	-0.58528125	0.14079304
H	8.678561044583798	4.6906456384438755	11.336302901450987	0.13111217	0.33295588	-0.08322094
H	11.008341051468573	7.301305606993061	10.694902837795798	0.1518101	-0.13189477	-0.55260473
H	11.755341072244041	5.535265568894187	9.058742848127219	0.1000549	0.54940935	0.88739767
H	11.664541102646478	6.987335647813812	8.629942800095481	-0.40876925	0.69454846	-0.75287221
H	9.418551035891666	5.965675617135437	10.762002891174584	0.2040877	0.9222267	0.24570092
H	1.3572111054790699	8.320226873319625	11.010833610230842	0.51685811	-0.43423375	-0.31974806
H	2.0894211003809637	9.599856848329688	11.67527353221596	-1.96111693	-1.25958203	0.31268712
H	3.249221064811344	12.164475684275748	10.216883504755746	-0.22509882	-0.26635673	0.55264205
H	0.346200984136372	10.557446909673125	10.526002828722959	-0.85218605	0.00328444	-0.49032819
H	0.30660100948408997	11.93956390940775	9.907142818265111	0.25941521	0.53149172	-0.27111741
H	4.174111013990597	8.577915618049937	8.7581228268907	0.45092441	0.56621521	0.43534719
H	4.9995710773998985	10.287375651528937	10.112312887466969	-0.11888072	-0.10598156	0.08565662
H	6.211011089158288	9.391065645285499	9.491922823170624	0.1015741	0.39947916	-0.39732296
H	7.042930991825379	11.700246830382	9.244352888404729	0.12860704	0.07541397	-0.07551578
H	9.903670994234782	8.426415652512688	10.9043028800149	-0.41032919	1.33989895	-0.64626618
H	8.881951060608023	9.7977356604545	9.60377281015403	-0.57528284	-0.37757111	0.16053587
H	10.242711023908344	10.352975626148375	10.160012829636392	-0.2376152	-0.07917036	0.53747301
H	8.92371100893142	10.127446933787562	11.990202826188217	0.03242583	0.70327114	1.06495248
Cl	10.172391077235172	1.8040155826680626	0.11655211580868399	0.19869193	0.1265187	0.10089315
Cl	3.211531102102575	5.2599256232765	1.9314228919995082	-0.72957879	0.0402815	-0.08228016
Cl	8.002191052744385	3.3441456746431246	4.935452881480224	-0.07547237	-0.10821386	0.12406179
O	3.4635510225544763	2.396945651632125	3.232412912110727	0.57361592	1.61497482	-0.01246665
O	6.135761009129191	1.3016256723119375	3.172872831706842	0.52979777	0.3774136	1.20749492
O	7.4652611629050964	0.37277361140112497	0.801801890915897	0.6968737	-0.8881792	0.15518724
O	11.572971166110541	0.32509443497987495	2.703882871331275	0.35760489	-0.78340427	-2.03583816
O	0.85340101981591	7.1797056175260625	3.1241228379369024	1.1170937	-1.95676507	-0.58371242
O	7.2939610438789435	4.445085653804812	0.616323869935808	1.30027284	-0.86633104	0.94740698
O	5.97199104951281	5.89320558943325	2.35906278931854	2.39539648	0.38827442	0.81729666
O	7.650280987652842	7.949175640665874	1.045725851235876	-0.14698291	-0.68355846	0.04138913
O	8.740921007439352	6.019185630721313	3.6183127912598074	0.65614396	1.15029548	-1.12779099
O	10.369971104600817	5.5807756160035	1.3224521232904731	0.31333408	-0.281323	1.13972719
O	2.2113008920913018	12.414675587093312	2.579282809333265	-1.8035081	0.07779576	0.35534722
O	3.6284110098841964	10.76501687806875	0.93215214059559	-0.09567967	-0.28329361	0.06376134
O	5.126141019250638	9.198365571693374	2.893682905197278	-1.77164253	-0.94757285	-1.19582783
O	8.314851014763452	9.160595624703188	3.5187128250654	0.52884318	0.29907241	0.23601457
O	12.053875203099858	8.373925642449812	1.159869860331715	-1.34503177	-1.36049038	-1.0382185
O	8.582001103619454	10.337366927423249	0.472852147557637	-1.19609639	-0.19601662	-0.68636212
O	10.456841037215673	10.216265586938812	2.257752799583023	0.30876954	-2.59101636	-0.46885642
O	2.85774108533516	1.24701568672725	7.2816728086364435	1.75308778	-0.465054	1.73477367
O	0.06024900862503	4.020615604064125	6.138252801856275	-1.5992363	-0.57423564	0.54824798
O	2.755811083363564	3.6814156531439375	6.059482865318097	-0.26419464	-1.30091036	0.94394302
O	10.583441039334053	1.761755673986	5.062272860419001	2.37107361	-0.64784342	0.69217127
O	10.194191007844948	0.3778096292843125	7.457632861005085	-0.88371327	0.34841635	0.24270431
O	3.4201710627948887	8.211825674547688	8.264952909460126	-0.92992989	-0.64899134	-0.3525118
O	4.389001015724219	6.135245588822625	6.615742812241578	0.1367441	-0.14129533	0.22973653
O	6.364201081879048	7.609685632481625	4.8279428420797394	-0.11476008	-0.69849772	0.92324221
O	8.311931052666042	7.57252561665875	6.7584128287541905	0.66183322	-0.43870188	0.51057685
O	8.714331016836974	5.060465655984062	7.8184128306108285	0.14298658	0.38416826	0.96078884
O	11.605141015936654	6.3437156704054365	4.953662826268693	0.11518126	-0.46622563	1.12501122
O	11.081051101247706	7.724805680291563	7.048062793654149	-0.28944649	0.09163452	0.98155816
O	2.439441110553154	9.134565573936687	4.236452175628154	0.31904768	0.22179081	0.45163433
O	2.931821060091476	11.971175659981311	5.25202282658919	-0.31414458	0.40256885	0.0801881
O	2.102121002167982	10.021545591986499	6.863042854726806	0.48754898	0.84960706	1.57756707
O	5.639421087071921	11.387916911113875	4.773982818828975	0.0005843	0.50287635	0.4555997
O	7.869311074048457	10.745575680783624	6.07594280713671	0.05711729	0.36999275	0.08412748
O	11.764655140150914	10.5722756350585	7.187662863315717	0.26124766	-0.3259019	0.85877213
O	1.711000997515084	0.537512663760875	9.825552899715438	-0.51950456	0.70142463	-0.17552178
O	0.363300910825066	2.8578356657159376	10.760913607424362	-0.23642867	-0.63275689	-0.59966587
O	6.920851006216437	0.1801819506100625	9.09601289216094	-0.50133656	-0.35732679	-0.00445461
O	5.427151068416304	4.0104956620657495	11.096202892535429	-0.09781621	0.06004796	0.34572856
O	5.599760991884358	1.2616656370333124	11.077873507646746	1.42745627	-1.20194172	-0.85611538
O	9.308121087867523	1.7765555807786875	9.424622872648106	0.58618172	-1.02478322	-0.10185822
O	11.5265410246709	3.737785568975562	8.608162854230363	0.53528853	0.2499353	0.57493798
O	1.719070994428383	7.213195566856813	10.091912792352904	0.29685393	-0.23709921	0.5813376
O	2.476811012486957	4.725625671199125	11.090002842870463	-0.09197902	-0.59612493	-0.44992034
O	6.02715101697704	7.4077656053225	11.546313595193908	-1.42602962	1.47927702	0.23462898
O	6.168821066964242	5.387325635222438	8.811042886808014	1.22515702	0.63082064	-0.52771087
O	10.256241013169015	7.6008656460495	11.234402810365305	0.16438961	-2.11664988	1.79564812
O	11.847741096253634	6.481135570188124	9.448452854018443	-0.05716389	-1.54339084	-0.72802024
O	9.181321016581938	5.0483856754155	10.570202889499175	-0.36602441	-1.40175549	0.14718884
O	1.184653070273833	9.099416871322937	11.61956350599534	1.49985372	2.18572235	0.60196579
O	3.926541011000772	11.708475599018687	10.782513583586866	0.31468528	0.49915706	-0.12967649
O	5.3013110547242155	9.37090560500875	9.878582809651926	-0.50971725	0.00243381	0.39056816
O	7.583251081143848	9.453966902168936	8.57515279892207	1.12850175	0.01934099	-2.49055783
O	12.240841087166006	11.119556928449748	9.916282788227813	0.34090154	-1.21530864	0.63904111
O	9.412341033630078	9.882725682475938	10.445602827501165	0.92005352	0.91833377	-0.83161382
170
Lattice="12.382742 0.000000 0.000000 0.000000 12.385166 0.000000 0.000000 0.000000 12.364387" Properties=species:S:1:pos:R:3:forces:R:3 energy=-826.04230084 stress="7.395277677990194e-05 -0.001566978126760093 -0.005023833724387348 -0.0015669691514699703 0.005983755564485141 0.0002624092278852956 -0.0050229448086576405 0.00026288735245037477 -0.0014827269223375752" pbc="T T T"
Li	8.73458208592277	2.993627780233426	7.914150890705211	0.41539323	-0.58447007	0.814889
Co	7.6478420538537835	7.344727792269328	3.46134081609948	0.56484402	-1.61084444	0.39209127
H	3.950262020745771	2.9265678059021836	2.310760818275881	-0.16791665	0.08060539	-0.0118067
H	2.573100003494067	0.740102196143754	2.163530894494695	1.39287015	1.58441663	0.84064476
H	1.106099954032653	0.289002265018098	2.0332407987118444	-0.15823095	-0.08638414	-0.13829022
H	2.972001991463202	2.9459877455002634	4.081230827030384	-1.07964042	1.04036091	1.08796363
H	4.849342091598942	1.913717759872931	3.0946808634165963	-0.67999003	-0.29894003	-0.12342062
H	6.940052068890465	1.7043377426135833	3.5687608767349417	0.23067598	0.01645294	0.10655827
H	6.809272109683578	0.7708637272517485	2.299570801024647	0.09120721	0.11163637	-0.36788455
H	8.302524191534097	1.1509167754007426	0.545306793917834	0.59202647	0.19292189	-0.02615705
H	11.121984173686768	0.7919021602852092	3.099160851649607	0.1873843	0.22345099	0.68358947
H	11.162864186973444	1.1650021764888194	1.640470846990703	-0.05993652	0.44867142	-0.91455297
H	1.8029999364561269	5.497397739941043	1.133549909802354	-2.29912327	0.75201345	-0.64110674
H	0.267864096244305	7.353197759292501	1.826310793832245	0.56001595	-0.23386172	-0.71086337
H	0.107499908749203	7.2575877490156575	3.801180806659793	-0.49732484	-0.5612492	0.79899279
H	0.035899922068899	5.506987821337462	1.134373872532042	0.46528776	-0.28759178	0.06272265
H	3.183942033388698	5.910757718423922	3.7078508301760507	0.27494258	0.03800793	-0.17215872
H	5.035041988567748	6.379867785751964	0.455723844823526	-0.96917449	-0.7947045	0.54540143
H	5.8226320596848335	5.584587819263576	2.295920834070807	-0.98574647	-0.44104825	-0.58483292
H	6.63887208119869	7.598057808034891	0.9344728978475261	-0.55984226	-0.415148	-0.02483993
H	6.774302007718967	4.5664377893362325	3.1599009013133568	-0.10460911	1.0023544	-0.1347073
H	10.385574204562559	5.828597750241928	0.54108410857205	-0.09027082	-0.49376836	0.2532849
H	10.745784209774087	4.401397779446585	1.16858415222907	-0.31025983	0.06764001	-0.34302098
H	9.021002092686189	5.476487741074439	4.059850824124212	1.16673236	0.60743592	-1.19159573
H	9.943662000183286	5.7954177678550325	2.742080825781883	0.14125699	-0.33645311	-0.67842484
H	2.421472088205357	12.29546773235488	0.11348330858540802	0.94208984	0.14214195	-1.55818153
H	0.948124026006378	8.735577797552693	2.3308308144111884	-0.8082587	-0.81891829	-0.34650254
H	3.041312037646953	9.720377796770002	1.098884126099298	0.34503109	0.0089309	-0.59695093
H	2.569641998935221	10.736167833399888	2.217284200165876	-0.04383252	-0.54944155	-0.47601266
H	3.8028620689196853	9.235237733509308	3.6355408056577754	-0.17345152	-0.3019793	0.1556539
H	7.3109920916139055	8.900877772067444	1.727530842978876	0.0185564	-0.16627921	-0.59850017
H	7.726084143396528	12.081814337570709	0.567732823938826	0.70986219	-1.54781532	-0.12113569
H	11.163542018275999	9.285087777184998	2.2289208190647143	0.40894122	0.17982267	0.03181075
H	9.266591988613593	9.440957810494021	3.6493207909910583	0.98735517	0.34035546	-0.70002419
H	10.70194199692225	10.86136773812275	2.412700859082036	0.72543064	-0.06841755	-0.02621729
H	9.188302101686343	10.480713390185818	1.176084141913556	0.15820089	-0.21374478	0.55684478
H	2.394272033081076	2.9142277223448216	5.614680859432169	0.08039791	0.92858656	-0.74056195
H	3.7273220175305823	0.7381022396091252	7.200390826879507	-0.34155593	-0.27472813	0.5453297
H	0.365390077714221	3.937737804223222	5.070030861735838	-1.06556064	-0.22818597	0.44224171
H	1.6324220917946821	1.9796878396348931	7.556860793907453	1.34049923	0.60118755	-0.32079146
H	2.790512102980974	3.0414278313056236	7.819230854091847	0.06772303	-0.19176853	0.16225141
H	7.353432082750341	4.035027738356623	6.431460869598404	-0.0832346	-0.00691764	-0.36033229
H	11.733742031187115	2.349067723659246	8.144910901715587	-0.2146539	0.68202609	-0.18201987
H	9.741432009302926	1.9382777908817221	4.651650803130721	-0.47210584	-0.36590859	-0.4519633
H	8.90088206467093	0.2949683231200056	7.834660866830246	0.78792302	-1.09224201	-0.46433157
H	11.045842073376763	2.3593477826290132	5.075400838523515	0.51029133	-0.79215247	-0.40518869
H	10.925942086688618	4.001207814465243	7.119490891989141	-0.11186802	0.06930982	0.23089177
H	10.066442088856467	0.001296726834132	5.654000845576838	0.18185412	-0.03889254	0.18680814
H	1.1579999886512249	6.5300677664159625	4.649650863581996	0.45464548	-0.30097835	0.34095221
H	2.6684320107187047	5.048507817757913	4.8644409090867855	0.11020416	-0.87017749	-0.04823711
H	3.917612073168438	6.434337743884844	5.7890408441543615	0.66393967	0.55219283	0.66402816
H	6.64852207594464	4.613967719947566	7.744090868745676	-0.12648065	-0.44276898	-0.13036153
H	4.668562105721307	6.60385783971251	7.253330803193562	0.24359847	-0.84687477	1.31807775
H	7.748592006056857	6.851027721831841	5.986640806474007	1.10601451	0.41769772	2.36339607
H	6.2150520536468825	6.647697734096897	5.5954908366983	-1.56446552	0.26402187	1.04350931
H	7.775702038646069	8.073973399986498	8.100730846090746	-0.15695543	1.46858541	0.2920632
H	8.472792096160779	5.8099277324185055	7.977740807859443	0.14156114	-0.81663273	-0.09978587
H	11.849692170800198	5.1643777295611155	5.0964308056422105	-0.43856462	-1.3985124	0.09030081
H	11.905757140724106	7.042507830862287	6.030920889987249	0.09185509	-0.19585057	-0.18086702
H	9.531982012986319	6.7501377916251135	7.269190849301387	2.20804171	-0.03594579	-0.67641574
H	3.168972041154324	10.297267785757455	7.731760855040703	0.12709954	-1.21693799	0.00932556
H	3.385782091720329	8.968587719887276	6.935830910166676	0.2798475	-0.59360583	-0.79751377
H	0.12434749616820001	10.675767734145223	6.832610908049337	0.15677751	-0.03450536	0.10714791
H	4.261032070711734	8.447537736046952	5.034260814656605	-0.07714135	0.64653602	-0.65086044
H	8.231302002315264	9.443837733041688	4.886520859924044	-0.08059777	0.082552	-0.37220902
H	5.815332061734621	12.077270344178402	4.310710876729576	-0.26224683	-0.34884625	0.71871841
H	4.4860420969237795	12.034967820394977	6.384870871361869	-0.04349291	0.06750029	1.36579851
H	7.524852077702008	9.718613282232669	7.619010878230472	0.23412482	-1.09493829	0.17107908
H	4.920842025723078	10.794103284708111	4.7936308083190875	-0.12977401	-0.57893672	-0.35991399
H	6.6936220039115755	10.666167744616356	5.911490805974609	-0.54581248	0.4869909	-0.22078355
H	8.236262033490839	11.082767806261387	6.153800885176923	-0.31004336	-0.88515287	0.49124216
H	11.529984133759035	8.286277802537873	6.9055908350390185	-0.13306107	-1.48612149	0.26615879
H	10.476542038161472	11.04990339789296	6.5253608443090165	-0.6592471	0.63968055	-0.28159225
H	0.084699937202736	1.376067814780883	9.052870845162303	0.37626955	-0.39483998	0.60208488
H	3.7291820292214233	3.391517819970276	12.105670810660925	0.27469069	-0.68976552	-0.31033492
H	3.579912035683395	3.679277729031051	10.009430865191375	0.6536288	-1.59956459	1.03260569
H	3.24984199622553	0.9245022014301708	11.652269492235126	-0.04160574	0.17594352	-0.54307569
H	1.1460780083847661	0.2545624635904392	10.982770841698748	0.37962836	0.22256755	0.21995867
H	7.526182108030968	0.6431168132314729	8.487960810707087	-0.82647915	-0.64113032	0.3295722
H	5.391272056640916	0.0873307748032944	8.336940831470748	-0.40392213	-0.02894132	-0.26390078
H	7.788752086717839	2.690907829692727	10.206370816548974	-1.25607815	-0.66315398	0.23997433
H	6.639482055074534	1.3470077577175215	11.669241591282749	-1.01120137	1.11804063	-1.1472874
H	4.784982046569666	2.3211778170379933	11.335070795668253	-0.64364239	0.79001004	0.1737089
H	5.979302103729243	1.2781077193390296	10.197257521687872	0.05974968	-0.29154205	-0.12462381
H	9.217532059723077	2.941367831043072	10.53947085627525	0.64098741	0.33229655	0.35460144
H	12.062608096630596	0.8698027461794641	11.380870833238525	0.53102937	0.22236181	-0.19411276
H	2.601912043984926	4.72410775875609	9.759350881742913	-0.67797296	0.55838806	-0.38842593
H	0.846848054918898	6.28702784160427	11.32827087755872	0.79899809	-0.64895696	-0.00788325
H	1.507842047729844	7.287007718990193	10.424270876240413	0.5566605	0.98280211	-0.3796392
H	5.74007210797182	5.994557730229372	9.22159081489129	-0.64306139	-0.63773004	-0.87813641
H	7.122722032694823	4.746887793770598	10.401097542687273	0.67677543	0.29728927	0.44651858
H	6.150462061096809	6.40992782108264	11.652183559747561	-0.97108874	0.70487994	1.20635267
H	4.436962107991063	5.105607765797459	8.807160806905223	-0.00374306	-0.27690402	0.06868234
H	7.9031220646115425	6.041307766965393	11.002997494613545	0.33251404	-0.92993075	-0.5138131
H	12.334742010005824	6.1003378192058095	9.612730893157638	-0.71655019	-0.6906495	-0.46788419
H	10.693542039991293	4.775777802510821	8.508870843274792	0.302557	-1.56587816	-0.36114495
H	10.19254199068666	6.397207760645898	10.597070846292667	0.35346861	-0.40960149	-0.5114487
H	9.236441992838829	7.313027837166852	11.39107083404669	0.91458201	-0.80510274	0.0190604
H	11.427442027291828	6.542237801650186	8.388930851954642	0.14501122	0.23071696	-0.53009711
H	2.6738719969780766	9.304257784142077	10.592970815662948	-1.18367089	-0.31230017	0.60948838
H	2.074452056051328	8.912827722909666	9.233280847940673	-0.48928797	0.02448359	0.4952714
H	3.761732048070009	10.859183366472932	11.638182499180083	-0.90398162	-1.40196746	0.46056451
H	0.354899913916785	9.905613305325096	10.295970828496928	-0.02248978	0.10676279	-0.34568007
H	4.553212033790388	9.536423285888779	11.530727570974125	-0.59504724	-0.22241028	0.23915804
H	6.4171220594993095	9.533567762117265	9.206650802797814	-1.02649323	-0.23991422	0.85177414
H	4.875482060172042	9.425827720690958	9.156990850987533	-1.57332548	-0.58752325	-1.12085045
H	5.895522080437116	11.476893374926277	9.408880857005009	-0.05948133	0.3284254	-0.02785184
H	11.769442095798519	11.208433393209306	10.2266707902769	0.77403616	0.16028831	0.14858113
H	10.063682099469798	9.669227806117137	10.331470837370633	-0.18994585	-0.51398587	0.44046488
H	8.76427206282852	9.12055778841311	9.744600910273014	-1.2064882	-0.05792358	-1.24229814
H	8.541802108503447	10.081613319773755	12.218570891125694	-0.4915636	0.53565486	0.54012248
H	11.863160136417843	10.358167750294118	8.249610797277048	0.11663595	-0.12947324	0.41827247
Cl	3.792962066610735	4.999727728534953	1.4306708206703003	-0.21505025	-0.15955696	0.17468376
Cl	8.025742044429371	3.453907719923809	4.43747081646571	0.05475588	-0.41386813	-0.00733802
Cl	10.725342036150883	2.605447834147271	12.267770887750734	-0.18278044	-0.40241057	0.21014133
O	3.883642001455824	2.156387739789347	2.927110905294575	0.56924943	0.06396285	-0.05595281
O	2.036599994690364	0.06860217514677361	1.774750806717777	-1.42377973	-1.29429525	-0.48269257
O	6.409422098979267	0.9689297719203805	3.1759809098605745	-0.34705054	0.08456805	0.42233194
O	7.484884177198416	0.6331447733291833	0.581201844946604	-1.08356391	1.70120935	0.10258199
O	11.510054110349085	0.49280226978604325	2.2517908542121035	0.15986064	-0.76309723	0.1937199
O	0.8806999952718779	5.934877828352023	0.819996852653975	1.6754611	-0.15210187	0.55587098
O	0.09356201806886401	8.176797769202041	2.335440875992283	0.86497937	1.14924099	0.76871631
O	5.64939204929931	6.983197750028559	0.035612895724276	1.77356181	0.31354315	-2.00586308
O	6.592922077986588	5.512627778030175	2.8575408288690203	1.11654796	-0.21472	0.78724492
O	7.238892089807603	7.917397783795521	1.7112509022987203	0.23907627	1.42458816	-0.24792754
O	9.48330211045085	6.214527807152453	3.5070808863942577	-1.83080332	-0.34117223	2.13343428
O	10.721254121501408	5.375477798613436	1.373284116323457	0.1711184	0.04067207	-0.25501318
O	2.7143321114801426	9.768027739635613	2.019084194159679	-0.48763384	0.1579946	1.48247888
O	8.40719204333761	9.115147824244847	3.9534908860044085	-1.07857093	-0.01561082	1.34063688
O	10.420942040203423	9.923427755911634	2.382680870037638	-0.76719329	0.29713063	0.13905826
O	8.321122079548928	10.557983323449756	0.724284135209275	0.10896202	-0.86710959	-1.40804894
O	2.3533220573015337	3.4942777863249073	4.753040876016461	0.78959131	-2.13857214	0.17222566
O	2.602511987839671	2.260387832771501	7.244500900075624	-1.47853466	-0.45686092	0.0095925
O	0.13939995746495998	1.7802377527149313	8.166120894304633	-0.03289386	-0.38054651	-0.27156066
O	7.3818820518621955	4.026877804011521	7.4122707903305844	-0.73191705	0.85662269	0.1245981
O	10.63384199229651	1.5121977519621002	4.712400867947698	-0.30023885	1.31016225	0.68799067
O	10.436042051229846	3.893067732191348	7.977130872663533	0.33317219	0.62601135	-0.45442481
O	8.293852061931782	0.999148832776847	8.014270893789126	0.29409287	1.94869473	-0.21862975
O	2.963182011920214	5.981377808595386	4.658640885507699	-0.55866078	0.57006599	-0.27141768
O	0.180799922092416	6.632497791960076	4.6192507932904405	0.26031269	1.07689291	-1.23693992
O	4.553321992540235	6.989257811537067	6.384250797368863	-0.49456695	0.79415021	-2.63904714
O	7.132071993599691	6.631447777623899	5.3187108256782585	0.20977477	-0.28140622	-2.99578248
O	11.79816411375431	4.164557744662572	5.349680894196684	1.52431836	0.96222475	-0.59969035
O	8.681312024718256	6.697977790720829	7.668050879691612	-2.1723774	0.89776368	0.4457687
O	11.453524168459323	7.261847750561675	6.8903809083838805	-0.36828738	2.30775768	0.10671616
O	3.1390020904496936	9.28426775537327	7.8045007892845355	-0.26967817	2.08251038	0.91046035
O	4.12026208666083	12.212467802244605	7.338840799665024	0.03165943	0.37850103	-1.96762564
O	4.175102031908784	9.316897836409302	4.5463608790359356	0.03057097	-0.47252741	0.33816298
O	5.501932041174039	11.524403365421058	5.101860873349249	0.29140494	0.94528541	-0.51485882
O	7.523122084803216	10.34896780161284	6.333530846686793	1.11031302	0.50271142	-0.73501511
O	9.704642015731878	11.612346338957984	6.152410880824109	0.79888564	-0.23172204	0.18775816