197
Lattice="11.965175 0.0 0.0 0.0 13.646391 0.0 0.0 0.0 13.634146" Properties=species:S:1:pos:R:3:forces:R:3 stress="-0.0069176979030350855 -0.003262520543702594 0.001985104331638491 -0.0032626660207972996 -0.00340802577513182 0.0003199787110512305 0.0019845101836602707 0.0003190012782390989 -0.0003292093787616452" pretrained=F config_weight=10.0 head=target_head energy=-1147.19914982 pbc="T T T"
Li       2.49744234       5.26705879       7.46111022       0.09172729      -0.26935848      -0.09504206
Co       1.25198766       8.48147880      10.04005728       1.22665353      -0.77351401       1.06580179
H        0.93695239       3.60403880       0.75822079       0.17026857      -0.68371627      -1.39767960
H        3.25979232       0.12205823       0.74487719       0.95038756       0.33137484       0.38851605
H        4.30593232       0.28016818       2.76083721      -0.26373759      -0.06588363       1.07314975
H        2.77909239       4.02804880       1.27128081      -0.23239896      -0.16688981       0.67801059
H        6.31756332       1.29276817       2.12672724       0.31901060       0.28801381       0.04105446
H        6.60645337      13.64017883       0.92345724       0.43295804       0.31869241       0.38800785
H       11.52030714       3.57539884       2.90614722      -0.35873538       0.08340387       0.07409763
H        8.09712234       3.24511880       1.58857071      -0.29658019       0.27972546      -1.71252406
H        8.58193231       1.10701814       2.73859719       0.12086305      -0.41714500      -0.26562786
H        8.89841238      13.17509879       1.76442721      -0.02635381       0.87442947       0.40440921
H        9.00729236       3.71189878      12.89036722       1.99661733      -0.28125765      -1.04789231
H        1.17768237       5.89772687       0.97620080      -0.12262580       0.56897730      -1.26522544
H        4.50674241       5.67676888       3.23392723       0.30748345      -1.57771841      -0.20185321
H        4.22781241       7.89581884       2.97378718      -0.16782006       0.00034685      -0.41596934
H        6.38208038       9.73871886       0.15896079       0.42150092       0.69848474      -0.52919566
H        7.83471541       4.91645886      13.47510727       1.00552567       0.42072857       0.43940171
H        6.90453878       5.93196689       4.00545727       1.22621695       0.06400608      -0.19184375
H        6.98795232       7.80025084       2.71327722       0.14949687      -0.19045564      -0.63188340
H        9.86015709       6.58088579       0.91085083       1.30027918      -0.40592960       0.04620378
H        9.28574232       8.92352879       0.88978717      -0.76207383      -0.22226180       0.20013265
H        4.55466234      12.39212880       1.92882720       0.50316832       0.17501375      -0.05814970
H        0.24692758       9.36130882       1.37772723       0.12627243       0.66955501       0.12245452
H        2.11641758      10.22764884       2.96272729      -0.02178715      -0.06938864       1.05867335
H        1.49709762      10.66596887       1.16497728      -0.44036075      -0.33913118       0.27640354
H        5.66003234      13.07427884       4.32782725      -0.14346411       0.10221511      -0.09925744
H        6.14344035      11.21846878       2.81302723       0.60678580       0.70962417       0.59496865
H        7.30204138      11.49079888       1.56823729       0.60673892       0.31199731       0.97052793
H        7.94965240      11.15539885       3.35104728      -1.28951261       0.80477278      -1.27432083
H        7.10871336      10.35662880      12.10585721      -0.95621969      -0.04364435       0.72320052
H        9.32010235      13.26392887       3.49993720      -1.01286815       0.16236965      -0.30868858
H        7.23757434      12.97004880       5.00691723       0.78004169      -0.31554078       0.70850336
H       11.18760242      12.82592886       1.62771721      -0.18630257       0.42866243       0.52685263
H        2.38282231       2.54026880       4.26705727       0.42142256      -0.63234485       0.96724962
H        1.22865234       0.25031888       7.30675927       0.50407904      -0.12001391       0.35817807
H        4.55623241       0.74171886       6.26401525      -0.32919164       0.20379251       0.32431641
H        4.79972240       2.05098879       7.39710117       0.17670545       0.32210871       0.28991105
H       11.28743708       1.87444884       5.50852716       0.50622461       2.93705786       0.09335320
H        9.72002707       3.89074878       7.24420417      -0.27773955      -0.70916800      -0.71171200
H        8.37727709       4.07386888       6.10994926       0.24315518      -0.81898819       0.01741241
H        3.49736242       8.36902886       5.28727727       1.31441928      -1.16146933       0.05967269
H        3.56717240       6.53656777       5.40334722       0.12025494       0.84845651      -0.35932467
H        9.74923705       5.61275885       5.49555727       1.06906826       0.40882245       0.09543578
H        6.55851442       6.06335379       5.81998628       0.20226709      -0.05476633      -0.44409721
H        8.59507714       8.42164879       8.95497720      -0.39896759       0.29138948      -0.38457140
H       10.63484233       8.42722880       7.26369119       0.34180631      -0.56694793      -0.84530207
H        5.70765242       9.01357887       6.72620927      -0.87059203      -1.26427217       0.29464116
H        0.29665234       5.04586881       8.12343728       0.61949003       0.29883396       0.49896234
H       11.08419710       5.50674877       4.26490717      -0.16069980      -0.25557185       0.35008038
H        4.49520236      12.20396950       7.53484627      -0.37837675      -0.03464962      -1.38004394
H        2.08681238      12.72615955       8.42558728      -0.82151738      -0.10988205      -0.91755444
H        1.74502765      11.68055877       4.76436726       0.23135719      -0.66334120      -0.18140355
H        8.27888232       8.88221885       6.72342218      -0.11017769       0.17475988      -0.10717038
H       11.51581230       9.74214888       8.08681719       0.33910338      -0.07855006      -0.47891755
H       10.88745708      10.60378950       4.68727721      -0.66136196      -0.50804655       0.31198397
H        9.69573238       0.22453812       6.64895520      -0.60662639      -0.99613527       0.40998178
H        8.87579234      10.51409887       9.57522724      -0.09005681       0.45171880      -0.02831199
H        6.64901637       0.90309821       4.44711717       0.12047586       0.50536287      -0.05285727
H        8.30209236      11.79941883       8.48344719       0.21030893      -0.06551487      -0.15958695
H        2.21235231       1.51327883       9.59471725      -1.09292431      -1.04723176       1.21660609
H        2.15477242       3.66534889      11.10083724      -0.81217620       0.91265812       0.29226678
H        0.56442768       0.67297817      12.53796367       0.10329941       0.43518597      -0.15319863
H        0.38348241       4.08127887      11.13804728       1.33236529       0.29412741       0.61049350
H        5.38294234       4.62842886      10.10507717       0.94811004      -1.37651412      -0.04468147
H        5.84847941      13.44679952      10.67228724      -0.20082936      -0.23319892       0.20755227
H        6.52002532       3.82544889       8.92258724      -0.44248178      -0.17504204      -0.62036926
H        6.02501540       4.37563889      12.60081722       0.94509177      -0.75695946      -1.23189022
H        5.68732239       2.76159879      10.15199717       0.31356228       0.82933628      -0.16157284
H        6.46741732       2.66724887      12.41890716      -0.03771242      -0.73794166      -0.97940984
H        8.32900240       1.97962881      10.92809724      -0.86277374      -0.18834677      -0.08987729
H        9.30250242       3.37554882      10.83477723      -0.06206807      -0.43276387      -1.01985583
H        8.38182231       2.76826887       9.30044724       0.15711146       0.10456070      -0.04506626
H        1.25894242       6.91019749      13.01918727       0.08397774      -0.82456421       0.37415612
H        4.82637231       8.38595884       0.41957081      -0.08203954      -0.35793507      -0.32136607
H        4.93190240       7.09852887      12.71764726       0.15196767       0.78308208       0.35767183
H        3.61237240       8.20400879      12.81791728      -2.67267621       0.00494624      -0.31914930
H        6.17465331       7.85976889      10.59688728      -0.96147217       1.33757923       0.67458819
H        8.24558240       5.48228884       9.60351727       1.03092163      -0.22407963      -0.48977140
H        7.09419541       5.98552079      10.71739718       0.27841923       0.24347334       0.36027840
H        8.65911236       5.54864878      11.46168728       0.44342397      -0.23936976      -0.46903979
H        7.24000339       8.74110889      12.70849725       0.50484949      -1.21834948      -0.07183824
H        4.47861240       8.27147886      10.33689719      -0.91775542      -0.32609715       0.15954440
H        4.23210240      10.70401882      13.31406727       0.12323841      -0.46646566      -0.80205626
H        4.93896233      11.14445881      11.67727722      -0.02484709       0.33934738       0.51602512
H        2.58097242      11.32087880      11.67825724       1.02370103      -0.53607229      -0.70326792
H        3.23443237      10.24471884      10.40387726       0.09117250      -0.30332398      -0.62686243
H        1.29004242       9.98419887      12.17648727       0.95556177      -0.81234225       0.44079466
H       10.91969234       0.08993818       9.65525722       0.62125022       1.14140147       0.86016749
H       11.39770239      11.10063889      11.89706362      -0.72775915       0.65157084       0.01876605
H       10.78544236      13.08150884      13.59505367      -0.12621467       0.77667412      -0.58468340
H        5.62193235       9.52237881      10.11024723       0.46321073       0.78013130      -0.50860458
C        4.80739231      13.47448886       1.91908724      -1.29824951       0.01640704       0.51353463
C        6.27189440       0.22005815       1.96006725       0.18722136      -0.29614894      -2.14008612
C        9.70976705       3.44949888       3.78742722      -0.09338041      -0.62846301      -1.10160660
C        8.58776235       0.00058816       2.73063717       1.48934069      -0.18147166      -0.45222631
C        8.03743239       3.87581881      13.21485718      -3.12565730       0.87898472       1.03235859
C        5.35275241       7.22782078       4.45745717      -1.26133060       1.01254778       1.60618546
C        0.93409236       5.94640777      13.48319722      -1.91204294       0.92817283       2.42366702
C        5.46515231       4.65095877       4.59316724      -0.51758520       0.28723868       0.29889830
C        6.16800031       5.99203080       4.78812722      -0.35689907      -0.18364986       0.33083010
C        6.27562933       8.46131885       4.46233724      -0.92700624      -1.03112220      -1.84058198
C       11.35893714       5.91391381      13.48787728      -0.50546982      -1.63935135      -1.65795268
C        0.43534762      10.46202888       1.44126726       0.79193800       0.44083361      -0.66933850
C        6.58462135       9.57612880      12.71546716       0.10025231       0.42742111       0.04315698
C        0.28656761      10.88257884       2.91454722      -0.72282612      -0.61654434      -0.42966933
C        6.67048141      13.48447884       4.26367723      -0.51572363      -0.46636453       0.42675567
C        7.15849040      11.67465889       2.67255721       0.48524593      -1.23756317      -0.03445921
C       10.11450237      10.63131877       0.40223718       0.18007448      -1.14850518       1.80115127
C       11.55669240      12.70807877       0.61489728      -0.14343551       0.43967867       0.50147410
C       11.56514233      11.23736890       0.41337723      -1.35593599      -1.51282609      -0.92364397
C        4.26859236      13.46006954       8.91032727      -0.69945104       3.07760948       2.50963124
C        2.19824238      13.38831955       7.52206126      -1.70890682      -0.72930361       0.29226417
C        3.24304239       0.68683881       8.05079728       1.66306087       0.74844993       0.19756275
C        4.02657241       1.44569890       6.93877421       0.80883174      -1.21530859      -0.32329413
C        3.15171234       2.34570880       6.13302519      -0.31423670       0.03403796      -0.41196873
C       10.29687712       3.63025883       5.20503719       1.36289240       0.24970111       0.19798191
C        9.26663705       3.42142880       6.31098025      -0.30595413       1.35773530       0.34532365
C        8.86698705       2.03239886       6.67720229       0.12949453      -0.36184598       1.77096698
C        4.48306237       7.43184578       6.97737520       0.70653842       1.30570798       0.31475582
C        4.19938232       7.46544784       5.49926725      -1.77942328      -0.96605552      -0.28181326
C       11.87687712       5.32638879       6.21877116       0.91179232       0.53832710      -0.88758880
C       10.73845716       5.13396881       5.25007719      -0.90816234       0.26378949      -0.69778674
C       10.56029235       9.21909883       7.98019721       1.52515398      -0.55004474       2.44453705
C       10.42953238       8.48195888       9.35926727      -0.46068790       0.49032869      -0.02459675
C        2.55355231      12.52585947       6.32315623       1.35691315      -0.04953563       1.65402123
C        9.49192238      10.19163888       7.60398026      -0.59835850       0.94593402       1.20053697
C        9.89230237      10.90778878       6.29936328      -1.57365507       0.98039607       0.08072691
C        9.16852237      11.17031886       8.73577721       0.31869863       0.50605485       0.38033506
C        1.43277236       4.49519887      11.40047719      -1.28618811      -1.09808094      -1.34115742
C        6.13696037       3.76722889       9.93854725      -1.29683534       1.15323423      -0.62928725
C        6.85399800       3.66018878      12.23030724       0.80722723       1.89503177       1.02276945
C        8.38792239       2.92030877      10.37887728       1.10085477       1.12606041       1.41419585
C        3.05516235       4.84742886      13.21037727      -0.23461844       0.32498716      -0.72791687
C        1.50867237       4.71628882      12.93005718       3.10409426       0.18577000      -3.41014920
C        1.55630238       5.64400881      10.44772726       0.77016256      -0.28339148       1.27781773
C        4.61574240       8.13313885      13.00108726       2.62704552      -1.38500110       0.81723318
C        7.97947237       5.32636887      10.63238719      -2.79463012       0.36966966       0.56782813
C        0.98010767      13.36981886       0.58859728      -1.53224387      -1.33239584      -0.43049736
C        4.35139232      10.39597885      12.23883717       1.41458213       0.79020309      -0.26404678
C        3.09465233      10.31776879      11.46649727      -1.35904333       2.35963442       1.82246339
C       10.30249237      12.05104886       9.34453721      -3.10698450      -0.26891510      -0.33227708
C        5.38117234       8.68924878      10.73330728       1.45409741      -1.07863330       0.29341246
N        7.21783635      13.17376881       2.92449728      -2.09053868      -0.91782752      -0.03102174
N        7.33496835       3.97571885      10.76124719      -0.22973302      -2.41635154       2.03550972
N        5.26215235       9.17227888      12.16729717      -0.33401832      -0.10350566      -0.96859445
Cl       1.43677232       3.61196885       2.90711729       0.03488152       0.01564432      -0.22565177
Cl       3.73534759       9.76237884       2.22995723      -0.17839301      -0.02959643       0.35885401
Cl       7.65892342       7.16026187       1.04402727       0.57899979      -0.19988240      -0.02260069
Cl       1.97466232       9.82894948       8.45876366      -0.01279188      -0.09084816      -0.36157499
Cl       0.22386232       1.09858890      10.86149361      -0.31297110      -0.02069552      -0.77096291
Cl       6.98044932      13.01838950      11.35089716       0.03016143       0.14340078      -0.13472385
O        4.20138242       0.47916817       0.79683719       0.19072811      -0.43240055      -0.66742098
O        1.06839235       3.51761880      13.37016729      -1.51346344      -1.22549249       3.66851556
O       10.49221709       3.56683887       2.73000727       1.24657058      -0.07188906       0.20636342
O        8.52347705       3.22003878       3.52930720      -0.65783317       0.05787133       0.95140057
O        7.71808834       3.03930885       0.66113081      -0.01173603      -0.99168997       2.09950347
O        4.70771236       4.65256878       3.47874729       0.00392142      -0.31952621       1.02822641
O        3.48022231       4.50902881       0.77626081       0.59935966      -0.12997251       0.16503981
O        4.71221234       7.04265086       3.19369723       0.53876865       1.05871622       0.04565315
O       10.89845715       6.46490280       0.94638074      -2.07316332       1.39291221       1.22424373
O        1.81792763      12.89328881       1.35961726       0.67991678       0.58197387       0.31131629
O        1.30224762      10.50139885       3.64233727       1.79258220      -0.49332180      -0.89365342
O        7.01106233       8.56459883       3.37634721       0.47204784       1.17821174       1.26278096
O       11.26961232      11.36493877       3.52141726      -0.12391456      -0.10089768      -0.99333397
O        9.13618242      11.08360887      13.48686372      -0.16134227       0.51550928      -0.71798578
O       10.05413232       9.46710888       1.16651726       0.61606842       1.05915789      -0.99738152
O        2.88671231       1.86730878       4.90974721      -0.37518782       0.63814261      -0.54621000
O        2.75907237       1.72047880       8.84704725       0.63900454       0.85518243      -1.20765674
O        2.71475241       3.38785882       6.59981624      -0.16824823       1.03311802      -0.06248682
O        5.66430235       3.73829881       5.40074718      -0.33227721       0.18895601      -1.09618797
O       11.53772712       2.91154888       5.46206717      -1.40711131      -2.61677132      -0.74439705
O        7.89147712       1.75411879       7.36866225      -0.12568592       0.00106056      -0.79944816
O        9.88747706       1.15713887       6.48809927       0.35260926       0.78254618      -1.11259516
O        1.05765241       5.64601878       5.86365222      -0.56249646      -0.03433070       0.52488388
O        3.95643232       6.63346083       7.75748016      -0.06131285      -0.28910581      -0.18386490
O        5.29922237       8.37923881       7.46387822       0.32623604       0.26381052       0.15776788
O       11.53020713       5.10881879       7.46196222      -1.34027984      -0.36872110       0.87110863
O        9.19189239       8.14233884       9.68919725      -0.00668803      -0.49796666       0.34679497
O        3.73868241      12.14445950       6.18742421      -0.63244176      -0.32045258      -0.89056026
O        4.85264233      12.44145954       8.42693720       1.40055928      -1.63832434       0.38272646
O        1.53686232      12.15242953       5.60099721      -0.57193948       0.93646986       0.15967621
O        6.21756042       9.31504879       5.34131717       0.98330512       0.93108785       0.14451681
O        8.23923236       9.47843880       7.49863521      -0.29988522      -0.47715810      -0.45764250
O        9.60383242      12.10505882       6.05238617       0.75129050      -1.59201694       0.35076937
O       10.42018231      10.02744879       5.49067720       1.13455666       1.04282104      -1.36676629
O       10.14078232      13.34739880       9.18041726      -0.13546603      -0.22298624      -1.37492167
O        1.19395764       0.66412821      13.36488365       0.74712415       0.07704366       0.48115330
O        4.49047240       0.19158877      10.10843716       0.07055080      -0.48992433      -1.76393623
O        3.82985237       5.28409890      12.36411726       0.36768609      -0.05090559      -0.01892187
O        1.48998241       5.46641877       9.21117726      -0.18416077      -0.21026066      -1.63549008
O        1.75641239       6.78867133      10.97692725      -0.18260267       1.44383321      -0.75090460
O       10.60649707       5.34825877      12.65955721       1.30845106       1.09678557       0.47855252
O       11.32202242       8.18963886      10.19233720      -1.10213461       0.44804641      -1.20351799
O        2.14556235       9.40415890      12.02110722      -2.38632711      -0.07981978      -1.10824314
O        0.02671764      10.95332883      12.65599365       1.75872032      -1.00184685       1.02190474
O       11.04175232      11.59095889      10.17683722       2.02596247      -1.43191367       1.10907259
197
Lattice="13.578155 0.0 0.0 0.0 12.854983 0.0 0.0 0.0 13.566674" Properties=species:S:1:pos:R:3:forces:R:3 stress="0.0016892556194264 0.003285173021293908 0.0003151416351013078 0.003285174481807044 -0.0011097178843567357 -0.006337123933895815 0.0003144525662523012 -0.0063364742052788295 0.004028745961089485" pretrained=F config_weight=10.0 head=target_head energy=-1147.72013442 pbc="T T T"
Li       8.29585678       8.05173844       9.60076626       0.35534589       0.13116587      -0.09343525
Co       4.70594682       6.03667141      10.63709624      -1.14140833      -0.66516874       0.79474322
H        1.50841674       2.76255844       3.04103622      -0.09122325      -0.27946246      -0.04145918
H        1.38476674       2.16999849      13.16895634       0.69960789       0.21853947      -0.75013814
H        2.73847684       1.03721843       0.96931278       0.04797108      -0.03008373       0.19912273
H        3.38255674       2.56558848       1.60141272       0.32502060      -0.40123340      -0.87857057
H        0.18281682       3.05843837       4.16732626       0.67653209       0.39437808      -0.03163057
H        8.68829681       1.32550839       2.46410623      -0.07403819      -0.92803664       0.57472338
H        5.84939974       0.27780839       4.07400627       1.17456902       0.67235615      -0.15436356
H        4.49524672       1.22157843       1.07238273       0.18961491       0.27875984      -0.24106200
H       12.66372683      12.76187126       2.52725625      -0.21054413       0.47390006       0.09459036
H        4.20265677       4.51844845       0.73447271       0.53696508      -0.67335155       1.05507391
H        2.49842674       7.64800739       3.29217624      -0.05731115       0.08858026       0.01694912
H        2.17234682       5.39078848       2.30387622       0.48589812       0.24171332      -0.78088289
H        1.16434685       7.49373140       2.16856629      -1.24364081      -0.16161183      -0.05902881
H        0.46525682       5.33681838       3.61477627       0.40194679      -0.85891238       0.01231882
H        7.27398483       7.83828839       4.19920632       0.45078737       0.08527364       0.33591046
H        5.68568685       7.45791639       3.76949631       0.62644042      -1.02071366       0.04782915
H        8.76691677       5.12485848       3.26820623       0.27196246      -0.86733491       0.18959701
H        6.21804175       8.95396837       2.08648629      -0.19874947      -0.00638366       0.84604462
H        9.06017681       8.59012839      13.39370633       0.24120202       0.68007740      -0.14081086
H        5.87489083       4.74492843      13.50445624      -1.56039467      -0.59203905      -0.05824899
H        9.06765674       6.40438845       4.30848628      -0.25527751      -0.93139686       0.45731213
H       11.16736681       5.95541545       0.42145278      -0.61962534       0.23332128      -0.47808447
H        1.32319673      10.94588846       2.93954624       0.07519165      -0.35657370       0.26394716
H        1.79528676      11.05647846       0.74574634      -0.07390732       0.54811908       0.01535691
H        4.66187675      11.34749843       1.95536629       0.70688089       0.20574368       0.14187993
H        9.95569683      10.69903126       2.31069632      -0.11605929       0.32942414      -0.23247633
H       10.79466684       8.95597837      13.54847630      -0.27063676      -0.68753095      -0.31600804
H        9.24202686       0.13954842       3.68441631       0.36560111       0.01367790      -0.45761507
H       12.80006685       9.72802846       3.31613634       0.26830359       0.18491903       0.36667560
H        2.99453680       4.10606844       4.95572623       0.32429810      -0.29724131      -0.49468291
H        2.74938675       2.25948846       4.84017629       1.22493572      -0.67057898      -0.41788037
H        3.62553673       3.94074847       7.31469332      -0.72426705      -0.40527528      -0.12388586
H        2.42628682       3.34486847       8.46451625      -1.03078771       0.23576280       0.71576472
H        3.25267680       2.20802842       7.46041526       0.64497017      -0.36197342       0.14847537
H        1.89537677       1.10120848       6.37885427       0.31184459      -0.91550690      -0.61402332
H        6.34060578       2.62188842       3.70334630       0.76454542       0.61996611       0.41492433
H        6.64364480      12.44404132       9.19534630       0.18098869      -1.55303223      -0.33886190
H        6.21371779       1.05824841       8.32866623      -0.46002794       0.36031521      -0.96306854
H        7.88542678       3.04531844       8.89846624      -0.47431097      -0.07124208       0.55426385
H        0.84891682       1.71720846       7.67226430      -0.14241713       0.20753269      -0.68102390
H        0.25134685       1.81595838       5.93096330       0.20989532      -0.50654910       0.12408634
H        8.33109684       1.70204845       6.89767928       0.61832580      -0.37813645       0.26415651
H        9.81847682       0.67699842       7.42626225      -0.81990760       0.13775750      -0.00404871
H        9.74998684       3.29027837       7.97907625       0.15926402       0.73292550      -0.79240376
H        1.33891684       5.30269843       6.74655874      -0.87660621      -1.42695674      -0.21386042
H        0.14904672       3.99929842       7.49246232       0.95132270       0.31625543       0.85274595
H        1.75630673       8.93518840       7.23525732      -1.00505469       1.00129504       0.35091918
H        0.94863682       9.16236847       9.25744626       0.13394388       0.49993122      -0.62824193
H        4.20734680       6.41478839       8.12981624      -0.14744604      -0.04165866       0.19995593
H        4.83968676       7.52675739       6.98997024      -0.64072261       0.27603775      -0.33443377
H        7.10537782       5.32364845       6.35041025      -0.42267873       1.09145508      -1.08334391
H       11.14254676       5.06752847       4.90713623      -0.97132024      -1.21922007       0.05254355
H       11.14374680       7.58834343       5.85946530       0.39791743      -0.21670475      -0.23958604
H       12.15827677       8.12038842       7.25057925      -0.50946113       0.09928532      -0.76839454
H       13.41458683       8.30919842       4.99104625      -0.33444897      -1.55330766      -0.30450792
H       13.57692141       4.20436843       5.91385030       0.70564927       0.69286574      -0.65183998
H        3.12211674      10.49523839       9.09887627      -0.33876466      -0.56372727      -0.40625800
H        4.01574682      11.79520843       5.87301529      -0.23818131       0.37749047      -0.33528465
H        6.17235181       9.66352846       7.36093234       0.63212106      -1.35582833       0.86235948
H        9.30504674       9.69536845       5.78431529       0.90989347      -0.11157253      -0.81235028
H        8.09256682      12.82957126       7.09887128       0.42584291      -0.44991172      -0.19581008
H       11.19979674      11.38252839       6.77995175      -0.47344540      -0.27676889      -0.46151444
H       12.65309677      11.63721838       5.86458333       0.17129539      -0.06543768       0.50800964
H        2.06344676       3.72154839      13.20632628       0.21056623       1.73699426       0.63297299
H        1.94262685       2.92689847      11.62549624       0.39692471      -0.13118065      -0.00193886
H        4.36009683       1.33446844      11.32121624      -0.86311613      -0.54354435      -0.04385744
H        2.80946683       0.48526840      11.95524632      -0.34182266      -0.27415036      -0.40650192
H        4.45874674       0.25995848      12.73406631      -0.92032768       0.84667102      -0.44300247
H        4.79507682       3.24553840      11.59505629      -0.32882784      -0.30020091       1.59616405
H        8.66073683      12.65803128      10.77832626       0.02623300       0.32276468      -0.57154122
H        5.57413674       2.43618842      12.94256627       0.50730397      -0.32587580       0.45889258
H        8.38764674       2.48629843      10.57374625       0.07934273      -0.60114920      -0.80344558
H        6.39570172       1.03841845      10.04052632       0.48481706       0.27478817       0.13376999
H       10.02018682       1.88629841      13.33570989      -0.68422275      -0.13210897      -1.00793005
H       10.22504682       3.72465840       9.73519626      -0.72114563      -0.12391587      -1.14050468
H       11.81442684       2.28042845       9.29486627       0.35348994       0.46822374       0.25504260
H       13.15700680       4.43886839      10.30891623      -0.40603447       0.81691146       0.82726751
H        3.72174678       6.05085946      13.10760621      -0.05418100       1.11942259       0.59804075
H        8.12636679       5.97111743       0.12565277       0.20148059      -0.33156689      -0.61910986