170
Lattice="12.398428 0.000000 0.000000 0.000000 12.400854 0.000000 0.000000 0.000000 12.380049" Properties=species:S:1:pos:R:3:REF_forces:R:3 REF_energy=-827.44485484 REF_stress="-0.004040766152715041 0.0007794089202078563 -0.002111757228307697 0.0007793965308122414 0.00429170150826857 -0.0004706891863291881 -0.002111650760645028 -0.0004708674500713324 0.0015316921606150055" pbc="T T T"
Li	9.995554818539842	2.905942128411725	8.885681974429168	-0.34295285	-0.29419248	-0.29365151
Co	6.029704863280608	6.987332079694697	5.533352023494085	-0.96821238	0.53572811	-0.77853208
H	1.8888747831618264	1.8041820410278997	1.703052027720833	-0.03026099	-0.56907246	-0.12921965
H	0.956368832424606	0.6659091267018975	2.255651978961913	-0.07014237	-0.08298015	-0.1693571
H	4.10813480656346	3.3459220774914367	3.7032220119089336	0.05885649	0.68331748	-0.72975996
H	3.0186571991161912	0.064457903752119	2.470942020954131	-1.14443132	0.48737687	-0.66645575
H	4.288034751486898	1.1824579017137011	3.531811939286474	0.22957725	-0.61493085	-0.19629041
H	5.774724752092945	1.477857904369602	3.9247519699835007	0.19829448	0.03623895	-0.52095179
H	7.337254818592047	0.4452800741434215	2.527602038676109	0.08981047	0.16678407	0.84438621
H	8.022732389695692	0.017351027109597003	0.5875520482961224	1.17319086	0.48751204	-0.3808571
H	11.485722454109023	0.30595796587066953	3.714342019494767	0.0095485	0.43257453	0.35630123
H	11.006542444158836	0.8063579765827186	2.2861119752481907	0.63067125	-0.46365047	0.2412659
H	10.352884817620538	2.4923820750900467	0.5605510376920626	0.63080481	0.8813318	0.23927559
H	11.445784763043756	3.659652030683535	0.9928229791687381	0.17742046	-0.49629631	-0.14803455
H	3.305844829716604	4.45717204252209	2.6578119273288574	0.51784074	-0.99727992	0.93053117
H	1.745944841668533	6.463582128677988	0.9814219444712856	-0.06732181	-0.61414944	-0.09144284
H	1.7868548174277614	7.854642114552788	2.4317419576960124	-0.1583773	0.20597637	0.74086541
H	0.6233827740229516	8.142042078179442	3.530621968979477	-0.57433837	0.27856421	-0.02455128
H	1.2529848473086476	7.84831209855192	0.39529100199642964	-0.1019418	0.29726363	-0.22176721
H	3.6975247965027864	7.585892043499403	0.3088530048859308	-0.71615015	0.17130234	-0.56309566
H	6.0728248587631	6.285472132760701	2.7593620026160557	0.28597385	0.06186574	0.88075485
H	5.213624859297682	7.353932082486989	0.45695305470424685	-0.45537166	0.94573377	-1.36262727
H	5.055174814078226	5.372782040200475	3.5337819764790694	-1.03217918	-1.20956245	0.27302847
H	9.85754246539347	4.407852109447959	2.275553031481678	0.46274764	-0.57629437	-1.11585009
H	8.4969524086765	5.060442098750049	2.6186529658333195	-1.17212752	0.68050778	-0.95462211
H	1.8005348705108406	11.996496274508871	0.3968529927749745	0.19189148	-0.0604248	-0.27380429
H	3.289924752715419	10.692312084492936	3.9810529662853487	0.40832337	0.88493615	-0.28499577
H	7.625444862065537	12.20905423114382	3.9219819340264626	0.33334921	-1.45829931	0.60452263
H	4.198057130531586	11.483812101684375	2.12694193324188	-0.42541258	0.66364212	0.61124185
H	4.429084843384447	9.610092022993266	0.2785988888140242	0.00401428	-0.400063	-0.0246584
H	7.762494849260045	10.452812032131698	0.903356945880667	-0.14044997	0.32814692	0.20789573
H	7.654384775879036	8.885732090298053	1.113022979226793	0.73838462	0.33514972	-0.43304457
H	6.572722393297758	12.333109275846882	0.4602359960901114	-2.93630332	1.01212721	-2.38317802
H	11.80507148197144	9.353646203436053	0.2429486807975637	0.40661441	0.4291507	0.85118217
H	9.892224834943448	9.587322070637203	1.365302007731087	-1.01655823	-0.10036056	-0.06757086
H	10.965784845075056	8.944852046381303	3.3634820228477498	-0.89354409	0.34895399	-1.40029628
H	10.777484841454793	10.722812109283403	1.9406020167635591	0.32393052	-1.3797784	-0.30180695
H	3.722657153194183	0.3713320447273905	7.436431968836919	0.27033889	-0.05750495	0.16545043
H	0.2598571566762656	2.2986021118517357	7.782051985956894	-1.07783468	0.87725528	0.19381475
H	8.256364764222962	1.826522055770583	4.1586519491884015	-0.20420511	-0.24681133	-0.24687694
H	5.046854849223824	1.13912510102319	5.644491932314424	-0.14395124	0.48401778	-0.04460867
H	5.561964758511117	1.9053620981402475	6.897291978237492	-0.01304227	0.9786827	0.31684114
H	7.449774764708938	3.2447121343205865	7.627121986922319	0.12171048	-0.00692229	-0.10053059
H	8.853694846272283	3.324832068847073	4.247251998051021	0.1841095	-1.13014402	0.09715089
H	8.416514757853397	2.9258420270833128	6.451012011351261	0.10750932	-0.33242351	-0.42207653
H	10.257084771070598	1.292532099439512	5.288102015393488	-0.10745759	0.04604319	-0.18049366
H	11.669484757204645	1.8674621116528518	6.691152030439001	-0.57161873	0.14869822	-0.07637624
H	2.1621572052335805	5.324942025060605	4.3460220095415165	0.36811279	-0.94325244	-0.90883995
H	1.8154572460414442	6.839802094077143	4.46041192881746	-0.049142	-0.31299406	-0.17219977
H	3.7498047503109353	5.718892111680722	5.8945619886810015	-0.73966125	-0.09864287	-0.56516878
H	0.369357217777753	5.439882069937792	5.9064819950312755	1.01791589	-0.08626319	-0.50328851
H	3.98803483375253	6.648212121681722	7.125551978533131	-0.50235853	0.47026091	0.57605804
H	4.993034762736719	4.55680211687423	7.219092038336249	0.51240341	-1.21836952	0.24166978
H	7.896774779755692	7.070542059058281	7.3928720237330365	-0.25437209	0.20253916	0.18958435
H	8.634434853026393	6.750512099932356	5.9331919506840505	-0.52839635	0.06870878	0.1640155
H	10.988484754251685	7.66277213087066	4.398142015705216	0.04291701	0.92669689	-0.59310731
H	12.021084822960757	4.17907209946523	6.708752003256712	0.26956495	1.18623733	-0.34428571
H	9.683422419457925	5.75703205469592	4.246891986226973	0.66156096	0.37445199	1.01447362
H	10.658212463687498	5.745742069060677	5.6153819803683245	-0.6315348	0.63950094	-0.65623958
H	2.9186248253138887	8.476992124975936	7.84859202555987	0.23568741	-0.36649815	0.43676238
H	2.458344854443351	9.491942017019351	4.370652983570759	-0.29384483	-0.71560243	-0.21217302
H	0.4197888139963126	10.224312033435675	7.950311955118938	-0.8776286	0.5104555	-0.108604
H	2.4739248425749194	10.906912089780764	7.9038319278645	0.24974809	0.04480414	0.51016779
H	2.4371447830559134	10.334712125608549	6.5848819376815	0.02498876	-0.47393491	-1.32803444
H	4.5240648579316	9.261922045630163	5.353131936623103	-0.86330496	0.25751193	-0.54055227
H	7.025834833161173	11.094912014899762	7.484972036239964	-0.41647469	-0.78644064	-0.5556087
H	6.0036748604295225	11.834312075533722	6.571581927272541	-0.24665028	-0.033452	-0.0207967
H	5.84082486121628	9.774012093532335	6.10172192871413	-0.0212138	-0.20672992	0.45965412
H	7.16721484721769	10.437416247695932	4.933753073345745	1.2375425	0.39141401	-0.5640138
H	10.737484786298596	12.187834261547964	5.604161941986814	0.17109506	0.77632621	0.0395952
H	8.677574809977354	10.723336169379783	4.94685302216335	2.89371195	-0.17162977	2.38768931
H	10.619584790484558	10.491616288903712	6.675641933687916	-0.15667797	0.06168078	0.30855641
H	10.992484858954725	9.998986281376428	5.302732014463295	0.47051376	-0.85510614	-0.87778128
H	2.528257232091283	0.6645720666074445	8.386501934493637	-0.6255256	0.94993297	0.68766867
H	2.3419448204027815	4.0507620736862195	11.918002020346558	-0.34751396	-0.30539753	0.68422477
H	2.002657137178986	2.65449211695738	9.900421973291946	-0.83499245	-0.72181387	-0.62497035
H	0.9516571819604536	1.44781212286665	9.807131990478021	-0.62819847	-0.71226497	0.55505466
H	5.937844789059751	4.022892022043885	10.54180197930767	-0.40916131	-0.72628724	-0.00829963
H	5.904204755319786	1.703562130497507	10.688400948188372	0.29986681	-0.04126307	0.48570899
H	5.255344824333325	3.678132031554948	8.542911968382576	-0.02131392	-0.30857426	-1.16526734
H	7.999704790077066	1.393032093710274	10.0517620057262	0.88201101	0.08683149	-0.24575507
H	4.4068947575515525	3.6393321150818867	10.837701986557269	-0.49570029	-0.09675989	-0.08718439
H	6.079504759611928	0.166934098140225	10.495620930235859	0.13037868	-0.14827794	0.11503317
H	9.437764809982015	1.027940034782622	10.575001928031988	-0.54757969	0.83403894	-1.08645551
H	11.817084814429563	0.0105721001884995	10.815201990357233	0.02375203	-0.04717379	0.08670324
H	1.0497168419441385	6.0936120697618925	10.055961937339273	-1.4336345	0.10163485	-0.6651106
H	2.402334833685725	6.673902103164487	9.339981984639143	-0.73811172	-0.08164471	0.49820154
H	4.112784836842341	7.850252088175146	8.709372002224871	0.69045607	0.78122627	0.82109118
H	2.511414836059447	4.6988421203510375	10.535502019987815	-0.18526317	-0.06246987	0.09761489
H	7.650754764240452	6.520472039159445	9.599541967543674	0.60105977	0.39805221	0.07106407
H	7.5560947531101705	5.485652134502945	11.596242938209892	0.30471552	-0.23955454	0.02600605
H	6.101994763408951	7.793936213232294	9.399712006904704	0.24966657	0.91172707	0.29013848
H	8.265674867507096	8.109172126152368	9.58051197526944	-0.91733395	-1.1843551	-0.20146565
H	8.59923484912328	4.591842094369011	10.661200990197365	-0.82627477	0.52151658	0.24202797
H	10.584284855254829	5.0937721224660875	9.975772027143442	0.09108516	-1.07278325	0.53895451
H	11.339342402161913	7.196432058149918	9.317632034632624	-0.03887466	0.44632666	0.52974678
H	11.786181485618162	6.019182019145051	8.37010195982259	-0.07841129	-0.31476233	-0.29435933
H	10.434684807670527	4.148792065827385	11.352201965691705	0.01305339	-0.27601603	-0.80978621
H	0.91101786387617	9.926206288412786	12.359291960894451	0.01807849	0.69245882	-0.20695027
H	2.857824796029551	11.074446265253309	12.085801946888877	1.75047186	-0.5557667	0.45388606
H	0.8377571668651806	11.824088191329754	10.57620192617865	1.12524855	-0.5950469	1.09969997
H	5.194044766463074	8.453936208923173	10.595201958734377	0.0844406	-0.61763149	-1.32495959
H	4.630154855500483	10.719612068869996	11.61087689889537	0.35915856	0.44201064	-0.59932146
H	4.448934849988343	11.624212092199844	9.355790935772365	0.06012112	-0.46696872	-0.0175969
H	5.421244836741088	10.338212018675303	9.651671011143122	-0.10311544	-0.22834188	-0.56820935
H	12.0525604631911	11.219612028027166	8.882852019035116	0.15290827	1.22722907	0.90258721
H	11.944884830713894	8.746422134862367	10.819802045153015	0.26343315	0.43323099	-0.46562771
H	8.49978482946629	10.736812053576045	9.368182002985948	-0.3971163	-0.24103163	-0.30054431
H	8.622384821222516	12.210012073118365	8.782471982176071	-1.17830503	-1.43977173	-0.24186381
H	8.85447247565261	9.521692038150826	11.426010951047417	-0.49594879	-0.22357758	0.41314866
H	9.960852487521397	9.188432103766432	10.324330944088407	0.11808207	-0.34351602	0.0539669
H	11.620084834148345	9.40925212947882	9.315461935848672	-0.03277752	-0.41659481	0.46299453
Cl	1.5382948600302873	4.23307211489557	1.5313219308324986	-0.08763825	-0.00679645	-0.06515093
Cl	7.103654803960865	6.58680209986259	1.061237977188221	-0.05390364	0.04319077	0.1888459
Cl	10.390484785158055	0.599083031832753	12.36260201458756	-0.28390755	-0.29012341	-0.08133861
O	1.8344548607464652	0.8079080833514686	1.7881919766968273	-0.66788436	1.05905186	0.05343395
O	7.450424814269054	0.6679450989362445	3.5132520174716286	-1.02636739	1.41085736	-1.54476143
O	4.854754851522307	1.839857934323493	3.9842519709391966	-0.04636359	0.20723891	0.58270944
O	11.714718436627795	0.2918579466850365	2.7580519458340507	-0.36353944	0.020687	-0.5194306
O	10.505484788751774	3.482452133452316	0.7791370201215633	-0.28959477	0.1276827	-0.21267256
O	3.9370647738224336	4.3098920581242	3.4476220352684375	-0.6934336	0.28193901	-0.27392496
O	1.9979448667934523	7.3988321031249775	0.8624890424253103	0.26107856	0.06723406	0.39567548
O	1.6028248322798253	8.080282104256195	3.4126419593027224	0.86566851	-0.01657194	-0.3520615
O	5.763074817548365	6.03271209507395	3.7033220427046114	1.35164618	1.63911691	-0.08169354
O	9.249522459050185	4.617212133814706	2.9904530725101535	0.27760918	0.09195156	2.05028071
O	3.7571571418738716	11.981412123537893	2.8797520364258005	1.77458377	-1.53757081	-0.09713621
O	7.238662398173531	12.109221278817786	1.049462941211385	2.00221472	-1.14375928	2.33951544
O	4.354994815549956	10.585912011834687	0.1623072702157983	0.19887157	0.07884057	0.6994971
O	11.481484795532783	8.461532104115674	4.004601924034613	0.66765868	-1.41376604	2.14721059
O	8.266044836587277	9.615492098941425	0.7967309267152789	-0.51255334	-0.95714043	0.0834053
O	10.77778475941892	9.721822106773727	1.754571972910957	0.5306562	1.80518476	0.3616121
O	5.276634784321009	1.0325180581091775	6.59783196410608	-0.42102884	-1.44038708	-0.29594562
O	5.3668747560047585	3.657892101462567	7.523041924827611	-0.19417441	1.05232657	1.27149306
O	8.34614475424201	2.89121202182673	7.428982026768242	-0.00735352	0.46497999	0.55204228
O	8.812174867874152	2.433012117787131	4.715911998462769	0.57499317	1.55979566	0.40880321
O	11.061584767640719	0.7413400502571855	5.464552005951634	-0.28657379	-0.683927	-0.08174144
O	11.768084864648284	2.5928220492267227	7.373101952131374	1.44126822	-0.82626077	0.37796322
O	3.302424847441903	7.613422063720945	8.215161932948348	-0.91623602	-0.21546614	-1.22520226
O	1.8420572046102208	5.965152117656208	4.974301942939144	-0.09108736	0.90486212	1.13778678
O	4.449844770591375	6.002722117414673	6.50649196280542	0.98595666	0.12764737	-0.31796531
O	7.741914823237884	7.00144201956365	6.401801935697961	1.19408711	-0.38666728	-0.26536071
O	12.05608484022636	5.193012065946668	6.516941962140995	-1.48521093	-1.0371826	0.9271405
O	9.980672489930452	6.316462115298634	5.063281935504653	0.18834279	-1.03363461	-0.12952389
O	3.1440571277818425	12.363517286299556	8.13249192754236	0.75587008	-0.36395596	-0.34086397
O	3.132144842508823	10.096532020163036	4.740553000331678	-0.23212846	-0.30716661	0.62636118
O	2.2034847600350504	10.043682059946565	7.478261925897734	-0.39398088	-0.06772393	0.50029863
O	6.328054798267306	10.909112125315517	6.735612005103003	1.03570864	1.35177866	1.09482071
O	5.405404853582328	8.959772134051876	5.641552042085518	0.78404766	-1.60777188	-0.2062821
O	7.963544775923335	10.688846169766553	4.370952952157302	-3.98057061	-0.53667609	-1.831713
O	11.88381947507849	10.55141209153814	8.203031960967543	0.82624492	-1.83356304	-1.33327511
O	10.291884801698691	10.487506273812778	5.746892021763903	-0.01403805	0.77691097	0.87095547
O	2.601304800131485	3.80801212947789	11.007601940806369	0.63552766	0.35912476	-0.78055184
O	1.5067572276618457	2.0095520905718836	9.260741995600783	1.3723285	1.30217802	-0.28858935
O	5.209454772151972	3.3532120436120554	10.340301950062646	1.24137624	0.79566899	-0.09986745
O	6.477034800486331	0.9349981130992021	10.984560936466343	-0.36904699	0.32727096	-0.63834119
O	8.975294780856682	1.452012044150172	9.747261949858611	-0.18807545	-1.15005219	1.54603713
O	1.983194829406767	6.239452066975884	10.148802029173629	1.98749444	0.05307259	0.02866787
O	4.532144789227278	7.861942125365269	12.2374019603515	1.25155435	-0.93644659	1.74459897
O	7.666384842019605	5.002202107277282	10.73911099057488	0.12774521	-0.08495185	-0.45982919
O	7.706204748022483	7.371432043854927	9.06883192368939	0.55703568	0.15191093	0.28817419
O	11.451242426897805	6.214782055746957	9.27062201748178	0.24561828	-0.50740878	-0.33604027
O	10.266884860214276	4.168172120693004	10.356202018356285	-0.00331369	1.20870109	0.25069982
O	0.26793783187760056	9.202826271212505	12.168838896946337	-0.25103404	-1.14044138	-0.17715674
O	0.0928571557700566	12.211635220918058	10.117641941118096	-1.11407998	0.79954157	-0.57477207
O	1.9344347891999356	11.316596256137862	12.064702010426856	-2.59501141	0.76265624	-0.07247995
O	5.390004766635527	8.480896285887981	9.593631979766377	-0.3948217	-0.17264249	1.17209702
O	5.048014846111952	11.172512095862967	10.003460997068766	-0.1111845	0.72218509	0.31940419
O	8.112874785754073	11.311812130615332	8.650552037359097	1.49453497	1.69527368	0.50142962
O	11.357984801915622	8.692722096093913	10.004041992766929	0.18418001	0.23743803	-0.71654303
O	8.972102433713085	9.309132097379214	10.477910898782804	-0.38783009	0.41377199	-0.66719683
170
Lattice="12.425714 0.000000 0.000000 0.000000 12.428146 0.000000 0.000000 0.000000 12.407295" Properties=species:S:1:pos:R:3:REF_forces:R:3 REF_energy=-827.48398943 REF_stress="0.0040968003057756264 -0.002484905058726969 -0.0011450422607489842 -0.002484931347963407 -0.002824040403074143 -0.000665277526935687 -0.001144573891662669 -0.0006650856192545935 0.00012554145241463257" pbc="T T T"
Li	9.887737973659384	2.937557955377114	8.0625549382633	0.11783208	-0.21487109	-0.33531418
Co	6.0218580193946565	6.739057977257191	5.551284938662907	-0.12397308	-1.19149452	0.26279522
H	2.530228022344739	1.2821179820647042	1.4458049596217553	-0.3248854	0.63725574	-0.11799795
H	1.32719797310893	0.39233096471380485	2.0467550206142464	-0.19735889	0.37285862	0.27310693
H	3.218837983167606	3.6755479713055106	3.0673750096165096	0.16711052	0.26524131	0.30335636
H	4.138298078411274	2.826607919742579	3.997265041275428	-0.0180933	0.60360934	0.14244389
H	4.642777968355638	0.5002119939948544	3.688954928084892	-0.30047894	-0.11325697	0.01673303
H	7.362437989506874	0.8149189963586048	1.99006497328546	0.08900209	-0.46715904	0.63357122
H	6.065508061766621	1.1450120433713153	3.7489850192169105	-1.16367409	0.3434207	0.30572786
H	8.271578032203456	1.7242879247025154	3.916015001719221	-0.11397159	-0.24240815	0.44466038
H	7.987872016642466	1.3698579580678016	0.0867149566942888	-0.10598187	-0.21532357	0.40168028
H	6.426832045683776	0.9755969022926209	0.05818301713132319	0.00603104	-0.2231334	0.5429187
H	12.192328075855874	3.5338779203044606	1.870275021905652	0.47247744	-0.35218584	0.06392723
H	11.628652084177311	1.139612013969075	2.0703950119203833	0.40417123	0.12609779	0.47415152
H	11.845179098012677	0.39151207417913597	3.4291150293121424	-0.35439419	0.31958572	0.71710788
H	10.907328076175027	3.1005779454097535	1.1904540201655336	-0.73300237	-0.20014184	-1.16563092
H	8.94879796224239	3.1285479849285505	4.132884964002901	0.12462651	-0.51925899	0.6577171
H	1.4285880720427149	6.982908018442868	2.73862499463592	0.14012282	0.17063295	0.27134986
H	1.228788057432897	7.7581980073136645	0.8995300012565465	-0.3124404	0.70693584	-0.47122158
H	3.8596879724393314	7.606417908169613	0.6355300605566584	-0.59213465	-0.41980016	0.60224464
H	1.9828780520993299	6.518037943000717	0.4292369450075288	-0.18327928	-0.78040849	-0.64981678
H	0.42989404433067646	7.353967962851674	3.9968449302680824	0.4060177	-0.53291221	-0.26349688
H	6.387648053455664	5.617038003837876	3.0878749627141695	0.40066799	0.35391429	0.21683436
H	5.4448580587974185	7.1894280105730175	0.741530048026124	-0.9039336	0.50437705	-0.07606779
H	5.209837978998578	4.762727998985831	3.816344967992448	0.39059203	0.71663902	0.51412407
H	10.438142060161141	4.466477911846413	2.804330058409693	-0.40757832	0.01641018	0.82872673
H	9.071222061405734	5.24066800980329	3.034430043382171	0.80966094	0.07806598	0.35857589
H	3.4492139523402585	11.963757932338087	2.3673750314993467	-0.27685192	-0.16266297	0.75218654
H	1.8318080845365374	11.904499911184232	0.2933300415476304	0.32272912	0.30991912	-1.13374852
H	3.2736280509568165	9.971008011958682	3.786529990057669	-0.05007556	0.37819387	-0.29022319
H	2.3685380454976923	8.621187953557696	3.9998300013625085	0.06332664	-0.35465814	-0.15999768
H	7.585137973825139	12.144511892346893	3.279494963097704	-0.14489898	0.2988761	-0.29573753
H	4.670514025972345	11.065357961301709	2.6433950354835325	2.63688878	-1.57404868	-1.76579399
H	5.764048061713852	9.497108018535437	1.2270349441879	-0.9272803	-1.30416939	-0.65495794
H	6.312068026460836	9.880817951268915	2.6468549337560785	0.20036455	0.46377268	-0.63668588
H	7.63866807420968	10.2283580023685	0.781859960293604	-1.26393165	-0.801982	1.02650926
H	8.008488015851384	11.63555794051191	0.3543699624164432	0.38883022	-0.58933716	0.12029293
H	8.270448037767748	10.062083826608168	4.032030033607448	0.63347821	-0.19582321	0.20226736
H	11.998079124740753	9.486673844346843	0.846872945154508	0.00520496	0.66755029	-0.31272976
H	9.715528014526186	10.569357990240603	1.0930720157023344	1.10495528	0.03329676	0.63477333
H	10.376128054994682	9.65373795306185	3.2181849354176117	0.07734073	0.2791879	-0.55476088
H	11.067828042387504	11.33285801848439	1.6704149647203328	0.28038967	0.84068274	0.3102256
H	2.3117140125756377	0.7638129689580544	7.8797349359030955	-0.74757721	0.95909542	0.31890638
H	0.0964139732281815	2.9177079692766084	7.579704955077064	-1.01837234	0.09643464	-0.0202749
H	3.647513934749961	0.2278900647581312	7.3149449434879275	0.64417559	0.414108	0.04156523
H	4.983088081699996	0.8584539215461504	5.692305012448772	0.4050752	0.5882823	-0.40677501
H	5.50388802873477	1.3789280189602175	7.125994992979785	1.27337033	2.09336247	1.17256008
H	7.368888053413089	3.3676979498902018	7.211274921939	-0.79903616	0.01247899	0.48630712
H	5.218398053407623	3.3470579065535615	7.25758502630425	1.12332306	-0.67103165	0.79160976
H	8.420148070356527	3.093677963076429	6.135744960215861	-0.31912469	1.07148894	-0.09455641
H	10.252728040249853	1.437027985477248	4.8162450225574105	0.97253126	-0.24067768	-0.03421006
H	11.783428020955515	2.2674779386662403	6.385434947273633	-0.5035744	-0.2637298	-0.70753408
H	10.622828057486242	0.1455163136003712	5.585635031051466	0.92718964	0.69641909	-0.61420268
H	2.0831139264550105	6.02347802120736	4.729774985865633	-0.48986422	0.95603919	-0.27421884
H	2.7021139188555128	4.663687979867892	4.976084977630401	-0.22926764	-0.19261542	0.34335967
H	3.599437977290527	5.690067902048602	6.533154960337897	1.01183652	0.7850983	-0.25100818
H	0.737113984131323	5.527207986535411	6.344984932390941	-0.11032429	-0.01601214	-0.20524921
H	3.990867975265148	6.798077999416679	7.517465000639721	-0.0959464	0.79823695	0.43503016
H	7.637458058175492	6.679557980102273	7.489134927765754	0.40363209	0.49841856	0.03198826
H	7.8921880541147225	5.362557920883904	6.680794946349669	0.30206279	-0.02431472	-0.59950448
H	10.851032136100097	6.176167984914215	4.325955004948411	-0.6253194	-0.3712964	-0.68485606
H	11.863928009428442	4.775197903476122	6.766064949472916	-0.08319227	-0.16070648	-0.21425998
H	11.579512112823776	6.61635799962551	5.600654930111194	-0.29678929	0.30426318	-0.68304624
H	0.473402060791049	10.656257947860967	7.894084965107932	-1.95337897	-0.65112945	0.13430115
H	2.6973779822024957	8.626037913221516	8.130015013909166	-0.66490022	0.79995261	-0.71264515
H	2.4155380603775365	11.044157905709914	7.488004995413747	-0.2984267	-0.27772413	-0.26473259
H	2.3327080020059556	10.145277959678106	6.16857503489887	-0.65828748	-0.19900801	1.1036888
H	4.543448052811343	8.634787949356493	4.715015019635317	-0.8864495	0.51563128	-0.10159285
H	7.0973880652776975	10.729463828617922	4.912030084086308	0.2304726	-0.14332471	-0.08431217
H	6.916778074932417	10.784157986027033	7.293585040776589	-1.0409878	0.14683137	-0.77002556
H	5.634978069390865	11.533057925569844	6.625095001158692	0.83621651	-0.32546798	0.04718674
H	5.805468061185262	9.273237961856589	5.559124984275183	-0.10054379	0.81311733	0.52160313
H	10.1945279837539	8.617547998180646	4.4070250146547485	0.31909936	-0.56475579	-0.03969328
H	8.703358051412641	11.289358016386881	7.643935039625992	-0.07936793	0.0008619	0.3170082
H	10.74822799090742	11.064103837096921	6.967345021566408	0.11297207	0.16190743	0.31017701
H	10.32672801344608	10.68699387125426	5.54984494800985	-0.55677489	-0.53764931	-0.72676685
H	2.5156480622498902	3.2914879377014654	11.635924995376227	0.40707817	-0.09827428	-0.71983948
H	1.799613929232971	2.784607994857613	9.445064951157264	-0.43203471	-0.00621063	-0.85083994
H	0.7802139401422934	1.66111802033888	9.132684997073946	-0.6293849	-0.42904181	0.3344237
H	5.833218035601705	3.9338379023912573	10.581325023594063	0.5518747	0.32973639	-0.17498409
H	5.759268013775957	2.99376797374409	8.721044946289338	-0.34218895	0.09077861	0.14599424
H	4.847237998505627	0.482551971486912	11.216509913204934	-0.36766072	0.09441369	-0.2475194
H	5.006768013479362	2.0684379504395007	11.421299884969658	-0.1657613	-0.71332545	-0.33145312
H	4.295627996455316	3.5207380144676224	10.302125029911627	0.12189806	-0.25530146	-0.148387
H	10.07030799613891	3.5149079712165503	10.283124994701682	0.58432645	0.04247772	0.88197748
H	11.698627989878448	0.6658630225187585	10.647225005971656	-1.42346167	0.74655506	0.85178023
H	9.4911580142396	1.2771279571963647	9.837884996581796	0.31151576	0.73188736	1.22093657
H	9.123218083133661	0.3521009320893056	8.782004964178608	0.21995253	-0.01333786	-0.59864711
H	2.122718032075154	6.65871796789778	10.09743493687133	0.33356379	0.40643075	-0.33315025
H	0.8485989816736089	5.847527912441012	10.365924953544292	-0.10162273	0.22919576	-0.03723241
H	2.5048980799966736	4.512197953649613	10.722925014346357	-0.17807862	0.13074487	-0.45488397
H	3.9382280530351497	8.281187934306317	8.967865001949912	-0.4969493	-0.13263584	0.39421477
H	7.554248021468261	5.265127968069901	11.638665890905841	-0.20013602	-0.22471763	-0.52062523
H	7.533617981202467	6.561797941910874	9.654034940594011	0.09972106	0.39532503	-0.20210297
H	8.009838069682916	8.105057990268506	9.432334942455354	0.26652673	-0.16070762	0.26155847
H	8.234847994243076	4.480838013049677	10.456409990885126	-0.79483953	0.53530181	0.05720849
H	4.840128004926217	8.27647393855886	11.000324957675994	0.01882235	-0.45204419	1.27607311
H	10.618628041880202	4.8657979686997885	9.448354993561805	0.21585245	-0.15206508	0.47665344
H	11.54201205336372	7.000737933705536	9.449655029927714	-0.12794757	0.22580146	0.86998389
H	12.225107109519774	6.181008002061299	8.399954947071153	-0.16385334	-0.8093646	-0.21922055
H	0.9476320469092495	9.82951394350386	12.379780914915553	-0.84058158	0.17039202	0.3806543
H	2.374498039241775	11.405213938341875	11.182524967507048	-0.29796	0.27535974	1.01665298
H	0.6146139638551334	12.366735841098636	10.665425018802582	0.25399192	-0.15843843	0.57795862
H	3.78979805267942	11.692657938408217	9.289509979471658	0.03727313	0.01782206	-0.1152827
H	5.816288000208581	8.419943833652045	9.759544963985508	-0.48290565	0.1655648	0.68315644
H	4.740348030019031	10.548157934648806	9.989489981843935	-0.8373194	0.22623211	0.09697216
H	8.46456800997103	10.731658017780097	9.114545035550629	-0.30902453	0.08414832	-0.50362362
H	12.019081066628063	11.497957983018203	8.833294984521952	-0.4579011	0.66460202	0.71352195
H	8.524552026233142	9.827367975547853	10.989719946381884	0.41373242	-0.59281864	-0.12209785
H	11.925728043798959	9.028987982935206	11.083924938897626	-0.82710843	-0.64239972	-0.4296291
H	11.668328010424664	9.422928019701274	9.574975036744144	0.07896935	0.25889089	-0.50930981
H	9.775962090151186	9.132557936959525	10.201609935325129	0.17078778	-0.07422629	0.49967862
Cl	2.0455079999112473	3.3585679853344517	1.2693350108220784	0.14347737	0.29748535	-0.01010776
Cl	7.61691798007942	6.284777924953472	1.746984972617628	-0.28824381	-0.04543907	-0.45021682
Cl	9.81821796740674	2.3767179857036416	11.837125040417225	-0.20632025	-0.42924267	0.17776024
O	2.2598679692162933	0.376204948256768	1.6936649947458766	0.14355739	-1.18195988	-0.31423621
O	3.7451879996399526	3.764547912741978	3.9277050309575827	0.17606306	-1.0212498	-0.70603902
O	7.452298019859383	0.6786949588996992	3.0114549590129407	-0.08188645	0.1723196	0.49425818
O	7.307112124927828	0.7821369030210432	0.5412500039064088	0.10743399	0.59167372	-1.61467398
O	5.079228067933375	1.2978119961695616	4.103165025947516	1.23680939	-0.12935183	-0.3101427
O	12.09983006641055	0.3736120641734784	2.4846249614549434	0.03970277	-0.3449219	-1.1156798
O	11.345627991803388	3.0685579459800065	2.045054973058827	0.32518869	0.50546067	0.80165311
O	1.9652980276042495	7.16374798122144	1.1422220258109792	0.47985891	0.0945018	0.52058226
O	1.398028022393864	7.245437935790682	3.704344936753276	-0.65133331	0.27416305	0.19191095
O	4.769337966440524	7.873967926498893	0.4460299705899896	1.63670778	-0.1312461	-0.41605295
O	5.958728060849367	5.441907904139328	3.9917450357477238	-1.02668879	-0.74967197	-0.03950299
O	9.8952520514597	4.9187479601104895	3.5276300679510886	-0.59009554	-0.39044249	-1.07094378
O	0.2405303869514535	9.156463848481025	0.18414485331603359	0.61059583	-0.4670402	-0.19976231
O	3.9956139767465455	11.505758011679054	3.09814497704436	-2.63110139	1.55423191	1.07935391
O	6.021618078856351	10.24505795060412	1.7568449258493903	0.58752032	0.43153067	1.14888622
O	7.427618066613274	10.562853844354828	3.9900299753654034	-0.57941517	0.4595781	0.03471989
O	8.387388048035124	10.68935795317116	0.4182799387554032	0.52416467	1.54137477	-1.59057801
O	10.634728039574787	10.474057973074368	1.5910750282232178	-0.65330442	-1.18501748	-0.4533795
O	9.958248060807529	9.511847923878015	4.092155040545911	-0.31075775	0.27599722	0.69878512
O	2.9303140212408705	0.0364209301814784	7.98051492623699	0.24413767	-0.83330384	-0.10304678
O	5.052388028556813	0.6909369311938177	6.673055027607722	-1.88281295	-3.27170363	-1.33811759
O	5.9266780438287805	2.806047913665664	7.732385032447488	-0.90402411	1.01651643	-0.97130054
O	8.165537982557879	3.7996479795750786	6.831664923458378	1.38456593	-1.28839895	-0.44223175
O	8.715188076731085	2.2877079774689792	4.639204958554322	0.39048061	1.00693401	-0.97881353
O	11.091828060560799	0.889854005057408	5.027434925208403	-1.47566617	0.03724863	0.53486068
O	11.653027980200617	2.9942679580544516	7.027364938716559	1.08330916	0.13173562	0.80864866
O	2.222713965892529	5.395298007088256	5.472154933596516	0.79869689	-0.95612966	0.22434084
O	4.439098024533707	6.170758012995239	6.902124958952621	-0.49252859	-1.34725361	-0.95679901
O	7.772928038777071	6.3625379755013505	6.541584972825519	-0.99475146	-0.0520962	0.16469628
O	11.243452090713081	6.985028011573901	4.708164952087901	0.58147109	0.76067456	0.71901127
O	12.230728005527434	5.6899079518106115	6.666374940001258	0.61968968	-0.14029599	0.72769701
O	3.1527879818205666	9.149417959714599	4.31012999651873	-0.11410341	0.17697316	0.55338415
O	1.972218032015835	10.205627917732494	7.112954925976824	0.86902414	0.09034416	-0.8162492
O	5.473458076312022	8.508357912289844	5.056124933709159	0.94381848	-0.84021907	-0.22053185
O	6.233658043091121	10.713557914625126	6.536375025598866	0.32575092	0.08251231	0.62082479