197
Lattice="13.637597 0.0 0.0 0.0 12.850181 0.0 0.0 0.0 14.662025" Properties=species:S:1:pos:R:3:forces:R:3 stress="0.004312137526105137 0.0005231568911431716 -0.00025823476302719496 0.0005232747870090504 -0.004768593381536878 0.0006056245843329684 -0.00025797422995326233 0.0006053673904664182 0.000170276139632957" pretrained=F config_weight=10.0 head=target_headenergy=-1148.48296409 pbc="T T T"
Li      13.20937959       3.47232400       6.89370472       0.63644208      -0.05725934       0.21973454
Co       2.36676221       3.45322401       7.41440866      -0.00328662      -0.53504872       0.27065795
H        0.42427479       1.26372407       1.29291660      -0.48575047       0.24467162       0.09502948
H        4.83374221       1.45282399       3.98160670      -0.57727053       0.33704723       0.84190772
H        4.84075221       0.86043399       2.31726669      -0.02068800       0.04120120      -0.09655306
H        5.41181215       2.49093396       2.66859667      -0.01282259       1.62448534      -0.52779571
H        7.86496226       1.79122400       1.65053660      -0.52262103      -0.64330429      -0.20907268
H        8.20635224       0.07899405       2.01611660       0.19189071      -0.14253695      -0.11875411
H        6.65977423       0.44936402       1.21027674      -0.50065605      -0.16384923      -0.69406523
H        8.51478219       1.66919405       4.33082667      -1.26846204      -0.20279730       0.10284570
H        5.86421026      12.69170502       4.84162671       0.17997672       0.36596427       0.32309402
H        5.65865621      11.89105508       3.35619669       0.51195640       0.23300601      -0.61297944
H        7.39978218       2.93431404       3.62382660       0.18939499      -1.41724180       0.61510600
H       11.30596225      12.78144400       3.50970663      -0.50584505      -0.55082019       0.52940017
H       12.20028221       2.48545400      14.55011201       0.33764861      -0.20737182      -0.10804032
H        8.56568220       3.43001401       5.36868664       0.45745305      -0.41985714      -0.14215449
H        0.62913483       5.64445705       0.93498665       0.84614902       0.08592949      -0.74905765
H        5.82885615       7.45634401       0.57505666      -0.03982870      -0.28503011      -0.32314538
H        5.47079517       5.74602000       0.76576665       0.22039216       0.01765890      -0.36457874
H        7.73540223       6.54892398       4.45451669       0.18470132      -1.26527279       0.64534322
H        8.98304219       5.29497685       1.15929673      -0.63173465      -0.24666789      -0.43950554
H        0.33127483       3.21123403       3.06347668       0.21148044      -0.62824674      -0.01646337
H       12.40384217       3.74717396       3.07359671      -0.95031556       0.42481840       0.07378494
H       10.01989222       4.23178397       4.57548661      -0.71711661       0.13149168       0.29354822
H       11.19592225       7.33943397       1.31731670       0.66549178       0.45922107       0.03124344
H       12.96818218       8.38720406      14.56169207      -0.43483675      -0.01215100      -0.24014088
H        0.01473474       7.67535402       1.99449671       0.44510774       0.25221660       0.11685103
H       13.01327217       8.32446395       3.50380663       0.30918632       0.29039450      -0.17623469
H        3.57279223      12.15255395       0.93961135      -0.09258018      -0.13406440      -0.32439863
H        0.47039483       9.39936399       2.52395667       1.05876053      -0.00456606       0.20765807
H        8.18696217      11.24046507       3.37753668      -0.47326528       0.31019734       0.78049851
H        8.32432223      12.20109500       4.93220665      -0.16058788      -0.16198895      -0.25733068
H        7.59014217       9.79041504       4.99502668      -0.67076370       0.44222712       0.43810352
H        0.04462481       9.89486401       0.35742660       0.20410746       0.76517190      -0.18397285
H       11.87244227       9.91229400      14.50045202       0.91586463      -0.30377613      -0.30896465
H       10.87413223       8.03284400       2.86051672      -0.17876342       0.58211912      -0.08207808
H       10.21773216       8.74526407       1.28163667      -0.04011560       0.54722521       0.25970513
H       12.62328216      11.34109406       1.76754660      -0.11303131      -0.32955753       0.08231050
H       10.93535222      10.76343396       1.69246662       0.14132305       0.37460961       0.51960022
H        6.75540720       2.11376406       5.06455665       0.96730526      -0.69844285      -0.51387558
H        8.25153224       0.95535301       8.01885666      -1.39751667       1.31811374      -1.36166249
H        5.96884022       4.57291104       7.59588494       0.33902573       0.33827126      -0.46018557
H       10.16490216       2.59261397       8.28840260      -0.62774997       0.69443583      -0.22848891
H       10.27123219      12.30918404       5.75469671       0.30139108       0.14778333       0.30553464
H        2.21304221       7.41971406       7.31345167      -0.47133876       2.19882213       0.84656384
H        6.55563317       8.55823406       8.64531662      -0.91525879       0.86571915      -1.01507939
H        4.61130223       7.64699405       8.34985672      -0.87944759      -0.20819734       0.15707559
H        8.50494225       5.57351699       9.48119663       0.35272878       0.27715916       0.88642936
H        3.92907228       7.47597395       6.14402671      -0.47733280       0.15522255      -0.14827388
H       12.22959227       6.81164401      10.02949671      -0.06001781      -0.79134752      -0.89280520
H       10.57282220       6.35712796       5.42107670      -0.60312959       0.34811776       0.44882351
H       10.07692220       6.34237801       7.11289364       0.39449194      -0.02985456       0.70806871
H        1.25523215       8.97682395       7.01179560       0.32404354       0.37961529      -0.52345810
H        3.87746215       8.99791405       9.43653669       0.86392278      -0.21408298      -0.63898029
H        1.81869226       8.71345397       8.63090664       0.22755927      -0.04783109      -0.07214981
H        2.58849222      10.86184399       6.25069661       0.05744197      -0.37922471       0.98721426
H        2.77808224      11.01184403       8.11883965       0.39388844       0.24493955      -0.67550026
H        3.10600223       8.90247396       5.26600672      -0.15438602      -0.39882301      -0.15263896
H        5.97984317       9.54576405       7.19221769       0.18792965      -0.05537020      -0.66288002
H        4.87989225       8.92599403       5.65439673      -1.78898979      -0.23006147       0.79248936
H        4.18456217      11.10093407       6.86157567       0.20730741       0.18711635       0.67078277
H        7.95080221      12.28559406       8.86321660      -0.10583893       0.01493907      -0.13862041
H       12.79899223      10.76808406       4.21567670       0.23623842       0.74913192       0.04075276
H       11.35138227       9.85902396       4.07562664      -0.30286573       1.15738550       0.36863690
H       10.31083222       8.55478404       7.50290190       0.31199552       0.33786100      -0.37026485
H       10.34697226      10.56048399       9.38057673       0.04706185      -0.49614347       0.48593970
H        4.24782221       2.38746405      12.63357196      -0.63012805      -0.69903513      -0.86230267
H        2.62380474       3.94750404      14.24904198       0.07824227       0.09823127      -0.28049088
H        9.19863215       3.46536293      10.55353670       0.02364020       0.00676066      -0.82757443
H        6.24632224       1.14192298      12.41587666       0.02010611       0.00435395       0.00591278
H       10.23515215       3.23245404      13.15798202       0.18179587      -0.48304998       0.63778951
H       10.85066220       2.11306295      10.06147664      -0.08309323      -0.21848286      -0.55591033
H       12.35504221       4.08215402      13.86027207       0.84074582       0.37496236      -1.13292724
H        2.35883222       6.79272404      12.39725208      -0.88280691       0.23930745      -0.00569395
H        5.57427616       5.29315623      11.46367195      -0.36128894       0.41362686       0.25022809
H        6.70654819       4.76005195      12.57931206       0.25481123       0.41053700       0.45316024
H        7.06033815       7.43938396      12.82014198       1.28155143      -0.05075042       0.26499004
H        9.39747227       8.06675396      11.84849660      -0.02955948       0.16824511      -0.59764464
H       12.74024215       5.51229101      11.12611665       0.43621794      -0.96432442       0.27327023
H        9.96702225       6.23647106      13.19484661       1.38291859       0.46737332       0.55708263
H        0.46739483       9.25618406      10.85153665       0.18006393       0.24358057      -0.41751519
H        3.07780226       9.93453407      13.78948660       0.89515176       1.90678401      -0.67808556
H        1.29331228      11.87180397      11.90293670       0.59028913      -0.53155406      -0.03113214
H        3.41077225      10.96732406      12.27236666      -0.09903054      -0.07405302       0.63503190
H        5.36360515       9.68891403      14.29113665       0.37007626       0.58319006      -0.73129759
H        6.60004319      10.96211395      14.42284665      -0.83879967      -0.12090921      -0.43166355
H        8.12645215      10.32154400      12.78307668      -0.01023263      -0.45152147       0.33888141
H        5.84248625      10.28772399       9.96678664       0.05361869       1.03347852      -1.31422767
H        8.96205215      12.18623402      11.30015665       0.77588754       0.23020435      -0.11975097
H        9.80291218      12.31589402      13.56383671       0.23825254       0.86525228      -0.23116107
H       10.75457223      12.41986406      10.89121663      -0.50718646       0.00053276      -0.27612179
H       11.02086214       8.62700399      12.16584661      -0.91320012      -0.53010660      -1.07473080
C        0.98847474       3.34704399       0.48004673       0.02729373      -0.30129042       1.36989766
C        5.33542415       1.51306397       3.04033664       0.37817252      -1.22832298      -0.43367979
C        7.40216221       0.80086402       1.89009664       1.08571279       1.09120873       1.60791034
C        7.42163220       1.90715396       4.16792673       0.29795786       2.32881057      -0.40418973
C        6.40682517      12.47406510       3.91802673       0.94110673      -0.04706223       0.22292743
C       13.35471219       3.92276397       1.15588663      -1.01118078      -0.79909164      -1.08371812
C       13.05195221       3.15965404       2.45444665       0.88991139       0.17397393       0.41594194
C       12.46207225       1.73974399       2.31357669       0.20180288       2.50929018       0.57430687
C       10.77209218       3.94543400       0.32746666       0.02352750       0.04652615       0.05216612
C       12.21792216       3.55334401       0.11878660      -0.64051655       0.36476784       0.05516079
C        5.99545918       6.45970402       0.10312667       0.24573111      -0.12653849       1.57904484
C       13.37764217       8.61344396       2.49803670      -0.30957294      -1.04948757       0.81399713
C        7.63058215      11.62804503       4.29175663      -0.59546070       0.09953642      -0.84655697
C       11.07222215       8.32751407       1.81730672      -0.36087196      -1.70005042      -0.28498595
C       12.73557222       9.37947397       0.30739669      -0.87918809      -0.54910934       0.30810685
C       11.89622215      10.64308405       2.23105662       0.35504515      -0.09356875      -1.14735045
C       11.81236225      10.84191400       3.73777663      -0.64591562      -2.24127294      -0.27671421
C        8.69697217       0.18263294       8.54914664       0.90434762      -0.82357751       1.88329185
C       10.29990223       3.62441399       6.54692861       0.76970921      -0.76828197      -1.19520128
C        7.69406217       5.41320532       6.98808271      -1.82749345      -2.36463913       2.30116048
C        8.67165220       5.36901008       5.82504672      -0.55232490       2.86381565      -1.21774630
C        9.21933225       7.92358405       6.00499669      -1.00677580       0.83207352      -0.48388300
C        9.41098222       4.11261396       5.50130671      -0.49952370       0.00114200      -0.98709397
C        9.69689227       6.50841404       6.12067670       0.37588625      -0.55655721      -1.35615605
C        2.10313218       8.58318397       7.57667652      -1.08883663      -3.62264200       0.67836503
C        3.22913227      10.66190404       7.16023864      -0.10610704       0.13028701      -0.39827059
C        4.44844217       8.72107399       8.50301170      -1.45030486       0.44072954      -1.52090518
C        3.82166215       8.56516403       6.01850672       2.73167653       0.59511604      -0.85452376
C        5.78290822       9.34200399       8.23012560       1.55004116      -0.44267168       2.84602062
C        9.73643217      12.41879403       7.65309367       1.28516007       0.00902672       0.13972427
C        4.79309222       4.10871406      12.98602198      -2.34296875      -0.00115566       0.08818309
C        8.11029214       1.84596294      10.33292673       0.58966297      -1.53757620       0.06517718
C       10.01390218       1.01070298      12.23315674       0.10352220      -3.51778165       0.38221952
C        9.77711216       0.06612305      11.06367665      -1.38946132       0.38906130      -0.57317431
C        9.25812221       0.94580301       9.82750663       1.41828828      -1.79893366      -0.51538225
C        3.98640215       6.84372397      13.31579204      -1.53383594       1.06593976       1.47956385
C        7.49660217       6.23721097       0.15226660       1.20285855      -0.85479103       0.88550236
C        5.47746518       6.49810396      13.34869201       0.04046688      -0.73968895      -0.86284610
C        5.69344817       5.20071499      12.55983194       0.43900594      -0.89132434      -0.25936235
C       13.34828220       7.54153403      11.44537668       1.55756888      -2.03535072       1.67597007
C       10.40388223       8.01102401      11.39952662       1.42200907       1.70887104       1.98695792
C       10.10638227       5.61016197      10.79846671      -1.65090471      -1.06455005       0.19041197
C       10.95735226       6.62849397      11.57454663      -0.69265200       0.38003984       0.13560905
C       12.34771227       6.49621395      11.06229666      -0.18705972       1.54285232      -1.47286706
C        4.89016218       0.13590300      13.35120670      -0.84989518       0.07811061      -1.95549146
C        1.96397222      11.82862402      13.79249671       2.32620869      -0.96563559      -2.96014386
C        3.31793226      11.02446406      13.37754673      -3.26059226      -0.66033630       0.54491228
C        4.55651222      11.64370400      13.97084662       1.48762395      -0.49197293       0.19956696
C        5.70617219      10.64626396      13.78967662       1.66671692      -0.47502941       2.50254535
C        6.20176016      10.39788397      12.41367662      -2.76500601       0.43344879      -1.81866877
C       10.54182217       8.71869401      10.09107663      -1.67650517       0.15495099      -0.23918280
N        6.73240017       0.96974405       3.25728667      -1.66617312      -1.07039117      -0.43575029
N       12.28386227       9.18448403       1.73987671      -1.14186774       1.33919257      -0.28199855
N        3.40154219       9.17409402       7.31188767       0.78889239      -0.18792342      -0.23743763
Cl       3.79589228       1.89336405       6.78396664       0.48170412      -0.71567731      -0.40260318
Cl       0.75210218       2.76582401       8.91821665      -0.52268780       0.10381840      -0.42583886
Cl       1.42375221       4.42003205       5.61998672      -0.86347440       0.13029555      -0.48940064
Cl       3.54519219       5.03825901       8.31565462       0.99104639       1.03672929       0.56489781
Cl       1.77695481      10.49788407      10.38248673      -0.06090467       0.25864135       0.20459415
Cl       9.60934217      10.61155510      13.89920664       0.01400818       0.04409649       0.32901064
O        1.36808477       2.18226400       0.72617669       0.44175862       0.59503403      -0.71346119
O       13.14565219       0.87855403       1.65711662       0.71047400      -1.81710292      -0.50940684
O       11.35170221       1.51754406       2.80701660      -0.40207795      -0.88595490       0.44042505
O        3.45240225       7.52817396      14.19985206       0.77584089      -0.00709234       0.04536865
O        7.85581226       5.55291403       4.62202666       0.37338113       1.44001419      -0.16086181
O        7.94545218       5.38706651       1.08263662      -0.83022995       0.21007775       0.40775518
O       10.41201215       4.62837807       1.28977673      -0.34380429       0.28874744       0.31351607
O       13.50465226       5.31773272       1.41112669      -1.16420389      -0.56243953       0.63945986
O        4.51857216      11.96866401       0.70829136      -0.30304111      -0.24546532       0.80754757
O        1.78310223      12.11076401       0.29007131      -0.65714516       0.43342645       2.02205852
O        6.97877823      10.59200510       5.01015672       0.96994067      -1.13066415      -0.02776821
O       11.01348215      11.96145403       4.06323665       0.51942082       0.42737867      -0.25606258
O        9.64074219       3.28837405       7.59022613       0.49286584      -1.08619426       2.11695306
O       10.44213215       1.65093305       9.27007666      -0.21755802       0.45580723       1.28602930
O       11.50775219       3.46125396       6.28249664      -0.02144032       0.03844503       0.77383810
O        9.69269216      12.82545407       6.38833666      -0.92541367       0.55530236      -0.70806640
O        6.60687126       4.59238806       6.81518063       0.91059474       0.76260985      -0.13714494
O        7.87313228       5.99333703       8.07946361       0.07263349      -0.03658954      -1.48145240
O        8.17708227       8.21262407       5.34692673       1.74280354      -0.28836020       0.52069925
O       10.71752215       8.14151400       9.00325669       0.21788641       0.21380498      -0.08914572
O        5.98027685      10.54056402       8.96356673       0.06076634      -0.23772467       0.88304068
O        9.98983223       8.87807404       6.56861462      -0.91299077      -0.84089376       0.17346145
O       10.66363223      11.69354407       8.00227567      -0.13878486      -1.05545227       0.98649013
O        4.57656222       3.16726405      12.08457207       0.98902355      -0.04424595       0.53135929
O        1.64811483       4.23112398      14.45042196       0.00975236      -0.05752258      -0.01599491
O        4.08369222       4.12621407      14.03639203       1.48147098       0.12288726      -0.18207643
O        3.93798227       0.77041294      12.88907667       0.22819338       0.85335394       0.37058363
O        8.30551217       3.12166299      10.17844661      -0.59390300       1.45255403       0.78904088
O        6.17583441       0.52012303      13.18965669      -0.31832685      -0.52561058       0.56936790
O        7.12419225       1.28349304      10.80372671       0.03792875       0.58016074      -0.18677947
O       10.03277225       0.53019294      13.45121667      -0.33877689      -0.32404151       0.20094064
O        9.88134228       3.58535407      14.04756200       0.29853894       0.67213795       0.43927234
O       10.34938216       2.14746301      11.98108662       0.62602051       2.87896632      -0.31536165
O        3.25155221       6.39972400      12.30904196       1.20265610      -0.56300056      -0.86330642
O       13.32976221       8.59624399      10.65236667       0.11701144       0.03567755       0.92223216
O        0.55461477       7.20367399      12.32930664      -0.62123413       1.56042739      -1.06279160
O        8.32834219       6.80072405      14.08788198      -0.25631599       0.52567087      -0.91019936
O        6.11788934       7.54556398      12.69062205      -1.04166570       1.13812169      -1.16017084
O        8.83367218       5.92921796      10.39000673       1.59629605       0.64048537       0.24971280
O       10.52245214       4.44900702      10.73588670      -0.02580052      -0.30556790      -0.50024262
O       10.95651218       6.38432396      12.99491670      -1.93907845      -1.05649189      -0.27074856
O        1.10508220      12.18238398      12.83225663      -0.51150952       0.21296608       0.84299203
O        5.34408320      10.58138404      11.49406662       1.96191183      -0.75871738       0.82935029
O        7.41736227       9.97379407      12.14360666       0.12489349       0.36131081      -0.32983848
O       10.23049218      10.00825401      10.24198670       0.60314563       0.33755825      -1.10533560
197
Lattice="12.928462 0.0 0.0 0.0 13.170551 0.0 0.0 0.0 13.13847" Properties=species:S:1:pos:R:3:forces:R:3 stress="0.0071544798377325075 0.0026598801934034563 -0.002961184664916064 0.002660047272361247 -0.0028159216539729954 0.001906240972655691 -0.0029614496793935493 0.0019059038812308203 -0.002956789537744327" pretrained=F config_weight=10.0 head=target_headenergy=-1149.0788739 pbc="T T T"
Li       4.30917892       4.14635189       9.54810974       0.18315415       0.16464297       0.03495925
Co       6.14891792       3.34117198      12.30612978      -0.36692081       0.07577738       0.80339487
H        1.33805896       2.34873107       2.66035983       0.48897909      -0.53553635       0.15821535
H        7.88961896       2.15353191       1.01157019      -1.18844077       1.42640218       1.45625548
H        5.38905895       3.05760199       3.49351984      -0.17075830       0.32982535      -0.81685905
H       12.40771083       0.78916110       1.78755973       0.09024556      -0.03701529       0.11185054
H       11.56039896       3.44501190       2.32886980      -1.18327125       0.00374663       0.23107701
H        9.57411894       1.66798191       0.97391021      -1.24911860       0.03709347      -0.29936981
H        3.07529892       7.97462195       0.71932976       0.05508444      -1.51367135       0.13479236
H        0.77444706       7.20749689       3.19070978      -0.50924759       0.05202478       0.11304726
H        4.68981895       6.99342697       2.50586982       0.49738384       0.32345157      -0.52450787
H        1.82611706       5.56111587       4.53393975      -0.06007421      -0.66832278      -0.45564562
H        3.93046897       5.19628187       1.19555974      -1.30658591       0.25106326       0.00569255
H        4.16233900       4.74220197       4.79844972      -0.37405805      -0.58404368      -0.05280932
H        6.48985504       5.01883187       3.53257973       0.46356162      -0.36448527       0.35449362
H        5.75643399       6.56321317       1.06719978      -0.43458504      -0.24900691       0.53981232
H        7.14692601       7.35122487       2.62529982      -0.53259441       1.14693549      -0.28432873
H        6.09691590       8.58885192       3.47779980      -0.31866270      -0.02867120       0.71306655
H       12.08066897       5.30924186       1.49164973       0.19986704      -0.27208455      -0.69182492
H       10.86954902       6.64494697       1.30567982       0.25020528      -0.88831521       0.07996026
H       11.80928892       8.85421192       2.94668978      -0.27168253      -0.20217529       0.09740045
H       11.41516890       4.74682194       4.50081977       0.15333127       0.86228931       0.11837135
H        1.48261895      11.05504191       1.30217973      -0.75282558       0.48016432      -0.18872684
H        4.19846901      10.14548196       0.75395975       0.24765552      -0.83202348      -0.25825772
H        4.16957894       9.38458196       2.40188974      -0.70095067       0.49089155       0.41110485
H        1.86876896      12.40817192       4.41772972      -0.38386241       0.32949140       0.11814489
H        4.54681891      13.14402272       1.10634020      -1.87805046       0.30761268       1.29508122
H        7.03167498       9.49908186      13.08382929       0.05693710       0.32976495       0.38404982
H        7.47399994       9.18831191       2.49445971      -0.58150688      -0.75872541       0.04146610
H        5.40730890      10.59973189       1.97340982      -0.08803624      -0.42658082      -0.06245162
H       12.60941087      11.41731187       1.66592982       0.53176967      -0.26858191      -0.90742213
H        9.38553897      12.15253272       0.81214017      -0.04635674      -0.02117374      -0.48962214
H        1.69471890       0.42458194       7.99256973      -0.25498658      -0.81082776      -0.12634205
H        3.24970892       1.42442194       6.08266575       0.50250128       0.09540026      -0.25329223
H        6.85779299       2.25598194       4.17788972      -0.31050836       0.01708629      -0.15560434
H        5.52861898       1.22265187       5.86112777      -0.36589022      -0.79440432       0.17003345
H        4.81980895       0.73542196       4.18996975       0.84984524       0.18062191       0.54104322
H        6.20006589       2.80835195       7.06140684       0.38175346       0.03160190       0.46937753
H        7.82093896       3.28275189       6.30885882       0.22710479      -0.68539521      -0.07728492
H        9.01354898       0.81163111       5.05551978       0.12181769       0.32555529      -0.03510938
H        9.12393891       1.19878104       6.78713275       0.79683309      -0.52223254      -0.30482668
H       11.38306895       0.62230102       4.65989983       0.21453913      -0.32067847      -0.79276229
H       11.79933892       0.72501103       6.42477573      -0.37234107      -0.31158358      -0.48284148
H       11.82809893       2.73468102       6.13724873      -0.97163500       0.02585903      -0.65599655
H        2.85590900       8.19681190       7.98079976      -0.70915801      -0.56511595      -0.60125635
H        4.41399901       3.98978197       6.48895584      -1.12370994      -0.62109290       0.32040973
H        5.00702898       5.62708992       6.09159176      -0.01462623      -1.76937980      -0.67277084
H        6.91364291       4.48591187       7.06517482      -0.20939269       1.02516331       1.11655987
H        7.21424296       5.69773689       5.00153972      -0.22003396       0.12861285       0.42125632
H        7.98372899       4.25856196       4.33656971      -1.00148410       0.10078377      -0.13844316
H       12.56966891       6.05484097       5.06500982       0.31185725      -0.00825753       0.72599507
H        9.69843890       7.77972190       6.06299181       0.25125785       0.81601419       0.79394866
H        2.23291900       9.27546197       4.40254979       0.51806020      -0.19828538       0.18612111
H        0.07597889      12.51358190       4.52213982       0.54665944      -0.69723169      -0.29532008
H        1.58567896      11.11862196       8.13103974      -0.17775017       0.48260625      -0.14938760
H        6.17479101      10.16949187       8.27793978       0.15207684      -0.58396725      -0.44928907
H        4.73506896      10.15535197       6.13742177      -0.76455996       1.24637226       0.81079105
H        7.70762901      12.35237186       4.85820979      -0.62031913       0.47818110       0.15487198
H        7.19691701      12.63222196       6.61811041      -0.22314873       0.65892125       0.30370549
H        9.61259896      11.86825191       4.15656979       0.40279455       0.05627593      -0.33670036
H       10.68876891      11.92754191       7.74508984       1.11092610       0.23185977       0.17711761
H        9.23075891      10.97727192       7.86705977      -0.38044948      -0.59771671       0.19979605
H        7.49578194      11.01645193       5.95510776       0.47804552       0.28910483       0.32628184
H       11.13351899      11.55176186       5.21185981      -1.23385255      -0.26584359      -0.12274080
H        9.13690900      12.77846196       8.21069972       0.44076088      -0.77369487      -0.14249715
H        9.58577899      10.49236187       5.24736981       0.57892505      -0.78335850      -0.25664108
H        1.27371892       0.86929192      10.08800978      -0.25730420      -0.60437946       0.00902965
H        2.70982902       1.49400196      10.90927975       0.60656674      -0.57722498       0.87848945
H        0.11581898       2.24959199      11.98138977       0.04349793      -1.46099183       1.59248075
H        7.84007891       2.25632187      11.03679977       0.28535823       0.35531578      -1.04208209
H        6.91247599       0.30574196      11.14307974      -0.46825369      -0.67140195      -0.06507392
H       11.77832086       2.53825187       9.76909984       0.49864114       0.16336693      -1.11225592
H        9.42997900       1.52281188      10.19340974      -0.24491997       0.11632140       0.02459876
H        2.31660894       4.76571193       0.03200019       0.65537343       0.66756404       0.83026951
H        1.79678897       4.24564191       8.84543981       0.22222620       0.15408014      -0.14529416
H        3.98161901       6.90623187      12.71128930      -0.37375609       0.41096285       0.80963314
H        2.57084896       8.50143186       9.71180981      -0.47945358       0.09873142       0.43475364
H        7.12602599       7.76998188       0.11743979       1.10549822      -1.20083034      -0.17084831
H        5.25049894       6.47373113      10.74128983       0.61034286      -1.33732566      -0.14942858
H       10.02114896       9.26384186       9.17909979       0.43342758      -0.54346604       0.52536172
H        0.28854892       4.71084197       9.80088982       0.95163021      -0.51770240      -0.76125786