170
Lattice="12.688144 0.0 0.0 0.0 12.606383 0.0 0.0 0.0 12.733015" Properties=species:S:1:pos:R:3:REF_forces:R:3 REF_energy=-826.23596499 REF_stress="0.0014908831454595148 -0.0018666554805341472 -0.0005455127098057328 -0.0018670205713689565 0.0023027165620216248 0.0002650792144176568 -0.000545913183755777 0.00026522542801043976 0.0047494501487610275" pbc="T T T"
Li       7.58428653       5.18717354       5.41910118       0.10486594       0.32660672       0.06095011
Co       9.54285663       6.66708350       8.50648115      -0.09673262       0.32109601       0.12613350
H        1.82455653       3.39316357       1.21778725       0.14604179      -0.34356542      -0.55977170
H        2.96996656       1.56151044       1.47610116       0.03742008      -0.45681741       0.39167643
H        2.85581653       0.36161044       3.52519120       0.53954277       0.51591475      -0.48380353
H        3.96234654       2.69441357       3.26930114       0.28394177       0.08376702       0.12869595
H        2.79700660       0.98951043       0.02955919      -0.48371170      -1.56859144      -0.92032978
H        6.67315661       0.93700560       2.78232124       0.96986701       1.03187327       1.08765064
H        6.38829661       0.16694671       1.55142115      -0.21215137       0.03161829      -0.23508451
H        4.26106656       0.65891043       2.63353124      -0.09151702      -0.26419039       0.72975288
H        5.59653662       4.12216361       2.05797577       0.56483018       0.34766531      -1.31219323
H       12.47191268       2.43671048       2.14371124       0.37612426       0.35670459      -0.12117254
H       10.34398656       2.44021039       0.84322217      -0.59142006      -0.16211319      -0.29813155
H       11.25248078       2.29621045       3.16849118       0.72711285      -0.86605945      -1.58977956
H        0.43868066       6.49995349       0.65987579       0.21057781       0.30182214      -0.41497980
H        0.46272964       4.24905353       1.02764322       0.94307692       0.00804236       0.57063405
H        1.50454656       4.59913355       3.15174116       0.16837677       0.09325638      -0.16673880
H        2.26310662       5.90879354       3.67032122      -0.11233566       0.18534598      -0.02004963
H        2.27064655       7.97648355       2.48259115       0.11076744      -0.10849578      -0.03793507
H        3.63382663       7.89004360       3.34030120      -0.32668668       0.40634255       0.35719598
H        3.76729652       4.22804361       3.53123124      -0.56166270       0.29359559       0.16099945
H        2.16405662       8.09974359       0.07341920      -0.12027000      -0.43558183       0.76980880
H        5.67733662       5.42958357       1.20687582       0.52776088      -0.46338141      -0.26862345
H        7.11200653       7.87155356       1.06037585      -0.20881442       0.12743734       0.33689488
H        5.66534658       8.23980354       2.72935113       0.12338564       1.00800060       0.41709273
H        7.78037660       4.87931356       1.71387584      -1.59528656      -0.13551034      -0.13057228
H        9.12786664       4.39477349       1.23007588      -0.13113457       0.56839839       0.53372398
H        8.97882663       6.79018357       1.13424313      -0.54780076       0.65336398       0.09837511
H        9.53838660       5.47152350       3.49241120      -0.33992442       0.15961904      -1.65728436
H        8.94402660       8.16154349       0.30683371       0.30601108       0.41209358      -0.82592774
H        0.90723162       8.89320359       0.39592484       0.14037932      -0.43980940       0.73541426
H        0.04874239      11.12999360       0.71012116      -0.30923561       0.03823594       0.52585778
H        0.02404061      11.73299359       3.28568115      -0.61532761      -0.40016921      -0.67578823
H        5.64642653       8.40542355       0.66507582      -1.37282320       1.06536545      -1.79912985
H        6.11649664      11.65919356       3.70127123       0.16996033       0.57680243      -1.24273509
H        5.45645659       9.54441354       3.81838123       0.03505232      -0.32980703      -0.28743298
H       11.79522071      12.58769351       2.44093114      -0.43319558       0.21432644      -0.27941795
H       10.08487664       8.44991664       2.47142124      -0.47104375       0.95956707       1.02029527
H       10.72598661       9.83083662       2.83788124       0.18513958       0.50820611       0.05397082
H        1.74290654       2.75789351       6.35990116      -0.34579673       0.16023485      -0.01146131
H        1.01182862       0.41401039       4.82115114      -0.37333884       0.92272619       1.07756573
H        2.12990661       3.86903361       5.28063117      -0.03683901       0.13205182       0.00609134
H        3.96370658       2.84625354       6.90290124       1.02503930      -0.40922085       0.18573387
H        0.09052953       0.84571043       6.73357123      -0.17037797       0.11625519       0.23175321
H        5.72325654       3.52059356       4.57435118      -0.38770298       0.09533666       0.07595875
H        7.38531664       2.20241039       4.52311123       0.97275976      -0.41398304      -2.17111128
H        5.12243662       0.89621047       7.39435119       0.00247210       0.93417598       0.30309066
H        4.77406662       3.19326353       8.14356118       0.36057218      -0.09816943       0.84625081
H        5.93943663       3.23400358       6.14110123      -0.15443381       0.14074261      -0.20450539
H        8.18148652       0.93741040       4.41812115       0.16200977       0.51613059      -1.52044268
H       10.30472652       2.82848359       5.91753112      -0.88465476      -0.07628524       1.07654480
H       10.65028661       3.60728350       4.64660124       0.30018845      -0.40302905       0.91885618
H       12.49511168       1.88391050       5.57690119      -1.41573737       0.71671423      -0.17697258
H        1.63364246       7.99182350       4.65099120       0.30311689      -0.21021149       1.45754055
H        3.01633652       6.47422361       7.65109118       0.59283832       0.29733349      -0.05973863
H        1.56404241       7.32163351       6.18424119       0.51540520      -0.60707650       0.50144236
H        2.18712659       5.38028354       6.84448114      -0.29388674       1.34578626       1.88018145
H        6.65783656       7.93966358       4.80577577       0.55140291      -0.42383269       1.09824142
H        5.86816656       7.65370669       6.77810113      -0.06972044      -0.37187693      -0.24790123
H        7.78686658       7.84636349       6.07897583       0.46929577       0.61140902      -0.30788333
H       10.36208658       6.22263361       4.63675123       0.20549099       0.25525197      -0.11438431
H       12.24058662       7.87141351       5.43317116       0.15312517       0.09982626      -0.24637182
H       10.35928656       7.94711358       6.31295122       0.43950261      -0.30074888      -0.83697203
H       11.08408652       8.39204351       4.38321117      -0.15227294       0.19407347      -0.12854556
H        1.55015663      11.55049350       5.08833119      -0.42490387       0.32369882      -0.27988361
H        3.40676658      10.37059353       7.21199124       0.29035204      -0.40056831       0.29586186
H        1.61211652       9.49104669       6.13754120       0.24668539       0.24331705       0.02970166
H        1.16345955      10.72619665       7.07403118       0.80395294      -0.22835722      -0.75063214
H        6.31691653      12.47799352       7.65644121       0.35977491       0.42590578       0.23414914
H        4.70307659      11.09959356       7.56610123       1.18480780       2.27282466      -0.46555665
H        4.91967653       8.68427662       7.46808121      -0.27955582      -0.08145565      -0.08119922
H        7.85239653      10.99629358       4.78836121       1.13330846       0.11159248       0.30508922
H        5.37956656      11.68409356       4.99122119      -0.01923773      -0.11576372       0.79946337
H        9.19551653      10.27179352       4.41938121       0.15061671      -0.16761543      -0.43699756
H        9.14062660      11.41169357       7.95977118       0.36678425       0.03781414      -0.31525364
H        9.42216662      10.82109360       6.49674122       0.15636571       0.55648779       0.19136878
H       11.48759069      11.40736668       7.84503118      -0.00628537       0.11470636       0.10752415
H       10.00640656       9.04305352       7.30683119      -0.42475278       1.01923261       0.61632549
H        3.47783656       4.01325353       9.62818124       0.66462605       0.08585138       0.41603832
H        1.28874242       3.94447361      10.11219117      -0.24306053      -0.51624576      -0.09085939
H        6.37031662       1.49924361      12.20049113       0.55341802      -0.12033674       0.46951838
H        4.75318663       3.41441352      10.44189121      -0.21587843       0.42023634      -0.67785004
H        7.86262660       1.51395349      12.56759122       2.65237610       1.63518273      -0.08823402
H        8.02309661       3.27788350       9.15956120      -0.37166187       0.23515809      -0.33584915
H        4.50149661       2.34983359      12.33995050      -1.07168985      -0.17407765       0.68744351
H        8.34718657       0.79616860       8.79642655      -0.09891846       0.63815662       0.61286083
H        5.65051655       3.39565359      12.54139253      -0.16311211       0.22853143       0.19005016
H        9.33409657       2.72508351       9.60810115       1.77965484       0.47620668       0.62502611
H       10.22804661       2.86901046      12.10555657      -0.05040304       0.27085674      -0.63258107
H       11.52198660       2.69467351      10.08209121       0.72969588      -0.43613854      -0.24274656
H        1.72864240       5.27705352       9.43287117       0.25759503      -0.60154946       0.38318340
H        4.33059657       7.73663350      11.47959122      -0.46093334       1.51041513       0.62660403
H        5.10020662       5.84031353       9.96482116      -0.08739590      -0.63866174      -0.07720771
H        7.48254652       6.79901358      10.08810119      -0.12587044       0.17045734       0.21099696
H        5.25857661       7.00159349       8.99113116      -0.26660746       0.85167969      -2.17608810
H       11.13308661       4.22059349       9.96777114       0.12861383       0.19224798      -0.01804114
H        8.58345657       7.85459356      10.61769124      -0.26265733       0.32884213       0.13731708
H       12.59651774       5.76856354      12.06779121       0.07467049       0.07277609       1.56215523
H        3.74086661      11.12579353      10.41970660       0.12846735       0.14104285      -0.04007461
H        1.77900660      11.50049356      12.06865654       0.61292293       0.21022140      -0.44131092
H        3.84479659       9.30066358      11.71339115       0.72561172      -1.15997262      -0.16983432
H        1.76429660      12.59009351      11.03135661      -0.01813610       0.48889019      -0.66213545
H        4.72503659      10.36569356       9.38910653      -0.79205852       0.21263090       0.62670868
H        7.25382661      12.28589354      11.65679124      -0.23776591      -0.65489905      -0.64336229
H        6.17144658      11.35429356      10.94599116      -1.02409179      -0.39474517      -0.37784227
H        7.83462653      12.01941465       9.54077660      -0.11971876       0.84450565      -0.17283285
H        8.13342662      10.13720349      11.35539122       0.07472485       0.05320558      -0.38082634
H       12.40338655      10.52429358      11.97199653       0.71641569       0.20425918       0.36927934
H       11.91218662       8.97322349      10.55499120       0.00998820      -0.01683150      -0.45681627
H       11.89948655      10.26839358       9.57093118       0.18880468       0.11442961       0.55892847
H        9.64105652       9.81121352      11.03629116       2.02986973       0.95258462      -0.64412214
H       12.61749277      12.33867168       8.59701123      -0.19543472       0.05389962       0.45258475
Cl       8.38283658       4.94533357       7.58242114       0.05193982       0.12016447      -0.03376366
Cl       0.44903977       1.33621358       9.58804652       0.08999793       0.29174756       0.13356209
Cl      11.59461075       6.37255351       9.34476113       0.20233458       0.04009430       0.09825560
O        2.92784662       1.78891043       0.52761821       0.51751217       1.92079788       0.18227115
O        1.03765153       3.71077358       1.68535121      -1.15181099       0.40309032       0.05389248
O        3.46869652       1.04661042       3.10388119      -0.46762700      -0.31219715      -0.01452893
O        4.45398662       3.56677351       3.32119123       0.44701491      -0.38849802      -0.18884846
O        6.01843657       0.31057779       2.45222113      -0.80719265      -1.09724973      -1.01131224
O        7.91316653       1.66301048       3.75957113      -1.03596988       0.14324559       3.80469516
O        9.66260657       2.63791050       0.13475019       0.51098393       0.04079699       1.12771642
O       11.63639077       1.94201042       2.28622119      -1.22465256       0.36972890       1.63293066
O        2.00624656       4.98844349       3.91920112       0.19580975      -0.22386390      -0.20567280
O        2.65043658       7.69201358       3.35284118       0.02137155      -0.18314882      -0.48516781
O        1.38340663       8.05471359       0.71416313       0.36412075       1.03293700      -1.09880699
O        6.10428658       4.52982353       1.24097585      -1.38848984       0.14383322       1.58787793
O        6.13373653       7.90290349       1.28497580       1.04694746      -1.62499102       1.44840460
O       12.60360978       5.72776361       0.34407587      -0.48191024      -0.48379553      -1.40610121
O        8.70919658       5.10166356       1.81907576       2.08506067      -0.51912065      -0.70131047
O        8.71471656       7.77113351       1.15874514       0.69260033      -1.10495237       0.45189609
O        5.32871654       8.57201350       3.64369114       0.06718394      -0.85287883       0.13781767
O       11.98699072      11.63299358       2.55893118       0.92610061      -0.02935027       0.58843940
O       10.21148656       9.10282669       3.24437117       0.23679247      -0.77724111      -1.43783199
O        2.25575663       3.58792349       6.21542116       0.55822668      -0.07751381       0.28098001
O        0.48968560       1.44021044       6.07921113       1.43914670      -0.27627088       0.22039148
O        4.85840662       2.60689350       7.33743118      -1.47338726       0.71156747      -1.20820041
O        6.38053654       3.60843358       5.30907112       0.53515232      -0.12187894       0.07117356
O        5.45881658       0.00571044       7.20967116       0.04297042      -1.36398269      -0.58989165
O       10.94178657       2.82616351       5.21569113       0.55648615       0.84245218      -2.01453504
O        1.30834243       8.08050361       5.62764123      -0.83890989       0.51541429      -1.72602041
O        2.09815656       6.20199356       7.50768114      -0.20820869      -1.88385664      -1.81190295
O        7.11119664       7.38969360       5.55557581      -0.92911551      -0.46224126      -1.18320960
O        5.07637663       7.70643667       7.35727112      -0.15696441       0.08506876       0.44989592
O        9.81217657       5.44758360       4.40367122      -0.13023880      -0.77199469       1.65620102
O       11.27948660       7.82422353       5.17623114       0.48054082      -0.78961165       0.23148534
O        9.68557656       8.16538352       7.02257121      -0.90553557      -0.89829329       1.18814378
O        1.19411855      12.18809360       4.38019116       1.33827869      -1.73146678      -0.94119924
O        1.87117657      10.44671667       6.39240116      -1.03731226       0.52773177       1.03466905
O        4.30893664      10.24561360       7.65531116      -1.50490149      -1.81013533      -0.03393679
O        5.98289657      11.11029361       4.48824123       0.00979263      -0.44453996       0.41759588
O       12.37420877      11.41552667       8.30110118       0.05626712      -0.80452864      -0.72448275
O        8.86508655      11.05809360       4.88958117      -1.60262363       0.00124001       0.05975516
O        9.82834660      10.89909358       7.41118118      -0.18876809      -0.32533316       0.04524488
O        7.10750655       0.98288754      12.67759123      -2.73932648      -1.54474688      -0.33856458
O        8.44103659       2.45141356       9.43384117      -1.37894711      -0.93212682      -0.15361663
O        4.48968662       3.91856358       9.60132120      -0.20614494      -0.06799385       0.25467539
O        5.26120660       2.75635352      11.90002660       0.87311422      -0.01173982      -0.54526753
O       10.89218658       3.37370360      10.39129122      -0.65036749       0.07799042       0.31439254
O        2.00424247       4.59714350      10.11444122      -0.29561275       1.01442721      -0.55479482
O        5.42169653       6.75736360       9.89353117       0.61221284      -0.32668475       2.42836317
O        8.44983658       6.92982359      10.26883119       0.00591478      -0.18238979      -0.82133039
O        2.42868652      12.06469350      11.52215654      -0.61220134      -0.44946154       0.85998688
O        3.99236656       8.41512353      12.16879114      -0.07875126      -0.38698773      -0.79591072
O        0.42524239      10.62609353      12.69394653      -0.46438894      -0.44618255      -0.68553733
O        4.59103659      10.63039356      10.34815661       0.26162923      -0.16721151      -0.00354287
O        7.12905660      11.51049358      10.98309122       1.24580544       0.72157074       1.14522759
O        8.08125652      12.47266871       8.67533659      -0.24320528      -1.52220403      -0.52283703
O        8.82032658       9.41525358      11.26129118      -1.89835042      -1.26057964       0.97737521
O       11.65268654       9.91041353      10.48379123      -0.24798582       0.01812633       0.09356578
170
Lattice="12.677858 0.0 0.0 0.0 12.596163 0.0 0.0 0.0 12.722693" Properties=species:S:1:pos:R:3:REF_forces:R:3 REF_energy=-825.53281401 REF_stress="-0.00176102324386133 -0.00019340232280088955 -0.004906638274421137 -0.00019332299321989959 0.006163433239382343 -2.0988896956447213e-05 -0.004906234043082599 -2.062183380475402e-05 -0.0007520441968491368" pbc="T T T"
Li       7.58550348       5.73984359       5.48845989       0.41405647      -0.10984845       0.03135117
Co       9.41224348       6.56605365       8.71155997       0.46969738       0.74424717      -0.67626286
H        1.61426355       2.57444364       1.43530996      -0.77481686       0.71738781      -0.45309863
H        2.91468355       0.99802034       1.54460997       0.39951486       0.59364298      -0.53959499
H        2.50203347       0.50572033       3.80245996       0.35295642      -0.04414103      -0.16130020
H        3.49669345       3.71616366       3.52612994       0.56791219       0.65583100      -0.34476915
H        2.29333349       0.90012044       0.10819785       0.37243878      -0.03186371      -0.50059328
H        1.02671151       4.03317356       0.99262589      -0.36554838      -1.01954282       0.38229359
H        4.01341353       0.07182043       3.61827990      -0.15837064       0.03134542      -0.13784676
H        4.37415349       2.46750360       3.45166987      -0.10198756      -2.05837806      -0.06412579
H        7.43372353       0.38596659       1.86833991      -0.08334641       0.09752066      -1.12659987
H        7.62358345       0.81066866       3.32711993       0.49040662       1.13658628       0.97228983
H        5.28045349       3.66000366       0.21802192       0.20972651      -0.80744094      -0.43430025
H       12.13207051       2.10472037       1.65849996       0.45326913       0.41762110      -0.31519044
H       10.02790347       2.30792042       0.77357293      -0.39644704       0.21579320      -0.82278026
H       11.08269149       2.17312044       2.75722993       0.10498675      -0.67910982      -0.39553110
H        1.45716346       6.43649367       0.36433708       0.03743549       0.92751287      -0.02570147
H        2.98247345       8.29192363       0.02287985       1.37304673      -0.23679567      -0.71222155
H        1.68805350       4.38062361       2.83011989      -0.43199941      -0.25081503      -0.22866025
H        2.54906350       5.64471359       3.31830997      -0.16059291       0.20396356      -0.19983122
H        2.41667345       7.98647360       2.40010992       0.39819348      -0.55950318       0.12870763
H        3.63537350       7.81995358       3.46001990      -0.72790749      -0.04640086      -0.43746603
H        5.38303347       4.31479367       2.26623704       0.23254406       0.42133613      -0.41261164
H        5.64012344       5.72820360       1.51213708       0.19602621       0.20942507       0.05319452
H        7.02587354       8.01157359       1.19903708      -0.40458574      -0.13836896      -0.58863121
H        7.69016350       4.71729361       1.90203711      -0.57131198       0.23969372      -0.41546686
H        5.58682344       8.01766358       0.27023712       0.41282759       0.51590031       0.09456345
H        5.54684356       8.37591358       2.72354991       0.08043278       0.22003839      -0.82266958
H        9.13182346       4.34270362       1.31453712      -0.78672041       0.64997209       0.33015249
H        8.93395354       6.75404357       1.31584285      -0.35201010       0.49310915       0.75210566
H        9.15370355       5.32198363       3.45626989      -0.20678738      -0.37670775       0.29260527
H        9.15881348       7.98949365       0.46487473      -0.36109566       0.71291318       0.10532165
H        1.74890354       9.16561366       0.31612736      -0.04030840      -1.34853062       0.11275168
H        0.17104953      11.61708361       3.06666986       0.17915070       0.33817682       0.38947121
H        5.33713354       9.59590363       3.73998988       0.26042879       0.34142276       0.17211125
H        6.58811344      11.73578355       3.60762986      -0.41351903      -0.84326291       0.80176297
H       11.83069145      12.47068364       2.24145998       0.04878790      -0.56144753       0.15508597
H       12.48704356      10.94688358       0.70002292       0.86414916      -0.41053068      -1.47765865
H        9.91072355       8.87935678       2.36338994      -0.54784959      -0.62613689      -0.20960387
H       10.91104356      10.03297677       2.60007986       0.23510332       0.55755747       0.40692382
H        1.70760351       3.21340367       6.25742988      -0.75746072      -0.49870566      -0.20487560
H        0.62271255       0.50922043       5.03199995       0.60659017      -0.45111253      -0.75183500
H        4.09772344       3.57431360       6.94260986      -1.40005521       0.02948134      -1.40420091
H        0.08332548       1.62372039       6.79433986      -0.06360187      -0.41332362       1.71941007
H        5.80938349       3.90846361       4.52994990      -1.96485093      -0.42664708      -0.98849881
H        7.57911346       2.60902036       4.82039994      -0.02617786       0.15476786       0.34503694
H        5.37573356       1.02922040       6.61245993       0.44282933      -0.89738406       0.53548055
H        6.11101344       3.89288367       6.13559992      -0.59160079      -0.10598028      -0.46060791
H        4.64473346       3.75514362       8.26185985       0.69835706      -0.07327829       1.28509451
H        7.87897345       1.20782039       5.50562993       0.47173417       0.97586386      -0.91144616
H       10.44464355       3.81245364       4.95129991       1.22726995      -0.93608758      -0.46899923
H        9.87415351       2.45388362       4.80062989       1.43427705      -0.27148422       0.02563742
H       12.03816954       2.25712034       5.55615988       0.15864599       0.17595178       0.00382599
H        8.73496353       2.78809359       8.14272990       0.11423907       0.29451551       0.23923338
H        2.19463344       4.37734357       5.30372995      -0.22173178      -0.24031847      -0.71132744
H        1.77008545       7.74862365       4.70272992      -0.43840464       0.36233153       0.50369507
H        3.11468348       6.63232357       7.61469985       0.25542271      -0.41984962      -0.27639325
H        1.52198547       7.43857362       6.25669998      -0.17954204       0.29063062      -0.30289417
H        2.21222347       5.31010356       7.06762991       0.62247463       0.89983539       0.78998814
H        5.43591345       7.68248686       6.55878989      -0.02224050      -0.03661554       0.56169374
H        6.56731351       7.68772359       4.52873704      -0.39898873       0.62638472       0.08831573
H        7.53806344       8.39720362       5.50363704       0.44433605       0.59867173      -0.06643062
H       10.96154353       8.37384365       4.24499987       0.10965102      -0.76341316       0.70223065
H       10.02286351       6.20287364       4.31555993       0.50957834       0.44927776       0.79827330
H       12.07844355       7.83486366       5.20692985       1.55542813       0.00895817       0.34412184
H       10.25719356       7.96975357       6.66792985      -0.65194349       1.47112204       1.59544974
H        1.28484551      11.64208359       4.95286989       0.30625372      -0.35536506       0.75836407
H        3.07252351      10.44258359       7.35254991      -0.60472436      -0.19820628      -0.39088212
H        1.55007352       9.68090683       5.96413987       0.18247262       0.12854023      -0.02907184
H        1.00051247      10.77054687       6.91239996      -0.53181864       0.12954788       0.30707709
H        0.06786445      11.94041679       8.31739988      -0.73220313      -0.56269518      -0.04506020
H        4.72654355       8.49620682       7.73539991      -0.25987134       0.14602396      -0.59862446
H        6.36072351      12.53208364       7.45520996      -0.27122681       0.54463363      -0.92603182
H        4.51344347      10.97768359       7.31368997      -0.87487113      -1.38470429       0.87277100
H        7.52519351      10.51348361       4.77888987      -0.16904836      -0.25523230       0.25716810
H        5.99132356      11.82608356       5.10938993      -0.02533574      -0.70323776      -0.14673551
H        8.94363347       9.87229356       4.39014989      -0.51916639      -0.04708671       0.60647677
H        8.97341350      11.33708362       7.70412995      -0.07288874       0.19959045      -0.04630394
H        9.22747347      10.68348357       6.27795998      -0.12962850      -0.25240784       0.33825644
H       11.47973145      11.14064683       7.73010994      -2.13174461       0.41514341      -1.11677430
H        9.64705351       9.34968366       7.63561990       0.58312015      -1.16317768      -0.85728487
H        1.69961355       0.27072039      10.83082268      -1.21074944       0.98405629      -1.68902487
H        1.39408554       3.68280360       9.95327990       0.30193243       1.31767141       0.07691298
H        4.49900351       2.29418367      12.67359278      -0.04904604       0.36022948      -0.13507937
H        6.64786355       1.59004366      12.64432995       1.22796325      -1.02781483       0.16043000
H        8.24702346       1.55596361      12.68092995      -0.55668848      -0.42204748       0.10081253
H        4.66887350       3.73666366      10.89172990       0.55722870      -0.55297648       0.34336095
H        8.05237346       0.60400656       8.62284272       0.12594465      -0.51576814       0.04407967
H       10.04309344       2.87522037      12.00259274      -0.30753249       0.06882254      -0.13871021
H       11.49484346       2.70037366      10.21066990      -0.27317329       0.84901408       0.06848839
H        9.70102354       1.97073360       9.09827996      -0.17606448       0.54675513      -0.12916567
H        1.62946354       5.37211359      11.93302989      -0.15250173      -0.01638136       0.16434209
H        1.41648554       5.22810355       9.42013991       0.52179423      -0.68226513       0.53800769
H        3.52369349       4.38895358      10.08019996       0.10396311       0.18150899      -0.14572953
H        4.76310345       7.77729365      11.04222994      -0.10549900       0.10630544       0.41061071
H        5.18423350       5.64033365       9.91415991      -0.32587562       1.09531110      -0.24613082
H        6.96697348       6.93209361       9.91369986       0.51122490      -0.02951593      -0.60142961
H        5.33906349       6.97776365       8.91350995      -0.33527617      -0.10635602      -1.26851925
H        8.19725348       7.77709362      10.50552989       0.05116443       0.22541899      -0.50464508
H       10.90624347       4.21511355      10.34654992       0.51180362       0.64829487      -0.22920152
H        3.40612347      11.58338358      10.80198275       0.81604439      -0.28305101       0.53660990
H        1.31042651      11.75178358      11.93820268      -0.77777430      -0.44469856      -0.13187850
H        4.14454353      10.92988367       9.59501269       0.39397597      -0.03210422       1.07993671
H        4.55853354       9.28729360      11.43562985      -0.06538219       0.59658035      -0.07835984
H        6.20692347      11.27028365      10.99962991       0.57211461       0.14473127       0.11479732
H        7.54039350      11.71910686       9.29737280       0.26751127       1.53269794      -0.79072596
H        7.27582347      12.18378360      11.72442989       0.09655625       0.23554226       0.01009121
H        8.34681354      10.04129364      11.54392987      -0.55873263      -0.42811256       0.02712884