170
Lattice="12.569496 0.0 0.0 0.0 12.488499 0.0 0.0 0.0 12.613947" Properties=species:S:1:pos:R:3:REF_forces:R:3 REF_energy=-826.43677917 REF_stress="0.006915203839678948 0.0015557277004550334 -0.0001521465466636773 0.0015558480742000353 0.005253347740024643 0.0018710583222111639 -0.00015195239828080757 0.0018708724313448678 0.003997192498541294" pbc="T T T"
Li       7.44914235       5.28440168       5.94579714       0.43138080       0.09877841      -0.34011079
Co       9.83033238       6.60410161       8.95138721      -0.12289267      -0.72483263      -0.64071861
H        2.69165243       1.61545232       1.22255513       0.47913837       0.12696673       0.54190471
H        3.90898233       0.56565234       2.94044723       0.63274069      -1.05976125       0.35359628
H        2.51139242       0.82125233       3.72149718       0.49472483       0.10007425       0.09598347
H        1.31065237       2.94470158       0.38721993       1.38125379      -0.72429083      -0.23915132
H        3.91741231       4.13148166       3.75195721       0.06063901       0.02158253       0.05213887
H        8.14881239       1.71664163       0.07950987      -0.60412053      -0.79659902      -0.04370215
H        4.21982231       2.60087159       3.33654713       0.47221262       1.50827314       1.08586696
H        7.42097235       0.77034758       1.81795716       0.03920971      -0.11741590       0.13684006
H        5.46775240       3.46839168       0.27803612      -0.63803299      -0.46571729      -0.13289215
H        8.25075238       1.14925240       3.89975723      -0.11183474       0.09862209      -0.14751680
H       10.11125232       2.31675236       0.78946219      -1.28401527       1.58849860      -1.32846438
H       11.83445816       2.86375237       1.70408715      -0.08517091      -0.71745669       0.25397024
H       12.00596717       0.40215240       2.24976714      -0.10515681       1.44065858       0.23366897
H       11.05676812       2.56375240       3.10380719       0.27756203      -0.29121197      -0.49968240
H        8.73559240       4.13758167       1.14280976      -0.54207194       0.70642074       0.43130270
H        0.78209037       6.73812156       1.32640980      -0.84715655      -0.94390466       0.86985035
H        2.19013232       5.14396164       2.56338721       0.92786165       0.95109959       1.73117499
H        0.08409533       5.38884163       1.00880977      -0.34653264      -0.65071950      -0.25903440
H        2.78500243       6.37109157       3.50029723      -0.38333606      -0.23349205      -0.48189337
H        2.50599243       8.04856165       0.11194512      -0.54898319      -0.12526772       0.45163267
H        2.46512234       8.21983167       2.35292716      -0.99689180      -0.30672017      -1.19735681
H        5.34646242       4.47453162       2.38770986       0.33263234       0.23512687      -1.82725226
H        5.61387241       5.70385166       1.31090978      -0.47471891       0.49644575       0.28395327
H        7.28345238       4.78827157       1.63380980       1.35693069      -0.32879795      -0.07277373
H        6.43323233       7.65442161       1.32530986       1.25444925       0.22982515      -0.71264793
H        4.92993233       7.71370165       0.75800981       0.74893023      -0.47652529       0.25247990
H        8.30786239       6.60524168       0.88715216       0.33984884       0.43739804       0.36062134
H        5.48827235       8.32169162       2.73092717      -0.18848006      -0.32914482      -0.39191780
H        8.67162234       8.00803160       0.21127315       0.42205154       0.81425069      -0.92844434
H       11.83246238       6.48700157       2.89445716      -1.14559821       0.38015298       1.36915903
H        8.78557236       4.84520164       3.49082718      -0.18270012       0.01105731      -0.29043780
H        9.98661232       8.00556087       3.51705713      -0.09684747       0.32427839       0.08877753
H        9.81727242       5.75895166       4.11922717       0.57374896       0.55381099       0.14875396
H        8.78904242       8.17445084       2.58034717      -0.03154047       0.64554764       0.47721942
H        1.40442232       9.00021164       0.82453615      -0.20799932       0.45305873      -0.52704965
H        0.26856663      11.15695161       0.94257520      -0.50786518       0.38344073       0.55470291
H        3.29026235       8.51136158       3.51748714      -0.27103399      -0.28999630       0.77696072
H        0.38799997      11.92005161       3.08395712      -0.04893162       0.42362076       0.20931031
H        6.23139238      12.01195161       3.24066713      -0.95353901       0.01982697       0.35020776
H        5.42110235       9.66686159       3.60731724       0.07258489      -1.22966149       0.14315748
H        8.39150233      12.19686881       2.34384713       0.89579162      -0.63156687       0.31572869
H       10.70096240      11.32925168       2.36488720      -0.66245239       0.07493178       0.18594425
H        9.58677238      10.35875168       2.82599723      -0.39888935      -2.01854898       0.72541316
H        2.59636661       3.73424161       7.50150718      -0.32030405      -0.20962811       1.12779483
H        1.70189238       3.40256168       5.65965718      -0.26992692       0.59205771      -0.08996662
H        1.03363639       0.83955235       5.64658724       0.07753781       0.36099926      -0.04726183
H        0.01649432       2.32485240       7.41070719      -0.16443874      -0.07522439       0.05033572
H        4.20456232       2.48823157       7.91602722       2.33494950      -0.16161077       0.07552417
H        7.77735237       2.40465241       4.76834721       0.08862819      -0.10530604       0.47244383
H        6.22970241       3.14938159       6.40644714      -0.67842248      -0.99735458       2.14381361
H        5.84622243       3.35816157       4.97591716      -0.72016326       0.33739466      -0.73806598
H        5.04090238       0.63265239       6.94391722      -0.12988918      -1.24843906      -0.91614513
H        8.28542232       0.40346857       5.87994451       0.09494068       0.82065091      -0.63741460
H       10.45676236       3.79521159       4.93611713       0.25480691      -0.51558835      -0.24539407
H        9.93304238       2.36277161       4.76233717       0.37866079      -0.05111645       0.29856711
H       11.98169510       2.54485243       5.90689724      -0.16791417      -0.06726812       0.20109896
H        2.93772244       7.32684166       7.25577714      -0.11249011      -0.67859371      -0.06398739
H        2.27163243       4.68971159       4.82568719      -0.13391488      -0.24673363      -0.02712532
H        2.07080243       6.02519161       6.81244722       0.49575567      -3.15043126      -0.92600346
H        1.14036662       7.78051162       6.02672721       0.74851673      -0.76144929       0.66336061
H        6.36794235       7.49231165       4.84040981       0.10721069      -0.01609714       0.56703002
H        4.99501240       7.83899089       6.64197716      -0.17150909       0.34537369       1.50352186
H        7.41168236       7.94050166       5.87240982      -0.17827330      -0.13596842       0.12998073
H       11.82926243       7.08641157       4.39797712       0.75847450       0.43374764       0.76433067
H       11.08226233       7.94443166       7.00708724      -0.98146507       0.11306430       0.32524783
H        1.13476666       8.40786164       4.57713718      -0.16103156      -0.20997217       0.40528966
H        1.64993235      11.96875164       5.26277724      -0.04376931      -2.93346306       1.12739338
H        2.87918240      10.53205158       7.80024720      -0.52220677       0.27138074      -0.36813911
H        0.73830541       9.78119093       6.31230724       0.02275149      -0.64991129      -0.37508205
H        0.24728698      11.03564082       7.14372719       1.77199422      -1.09670416      -0.17898440
H        4.32738238       9.08733091       7.54266712       0.35158223      -1.29534449       0.16962146
H        4.30260237      11.26765166       7.35887724      -0.29201572      -0.24344956      -0.18358155
H        6.12460232      12.13155159       6.61035715      -0.04654173      -0.44818421      -0.51458522
H        5.25755234      11.90655167       4.49529713      -0.00985177       0.28995826       1.00551167
H        8.28517231      12.17054393       7.25751459       0.57764884       0.14270739       2.02903730
H        8.37460239      10.34835163       6.00646720      -0.16535065       1.12635695      -0.14619787
H        9.57220233       8.64438158       7.06229723       0.56281147      -0.68065997      -0.24978655
H        8.94169241       9.20461166       4.98276716      -0.52398969       0.28185787       0.39123596
H        1.44338235       0.14315242      10.68311454      -0.25403963       0.61972144      -0.54545079
H        2.53029241       1.06015232      12.41220758       0.42259612       1.32950502       0.17088954
H        1.88846668       2.93385157       8.68602722      -1.80160153      -1.02301097       0.57025820
H        4.13396235       4.05862164       9.43512717       0.24692651      -0.15508565       0.69235211
H        0.09005239       2.93514163      12.00770654       0.78266934       0.57110867       1.09502408
H        4.85881237       3.73235160      10.90955723       0.24145146       0.58409642      -1.95688123
H        4.34686233       2.33725161      12.55956359      -1.03859926      -0.20412371       0.51125707
H        6.57803242       1.68969158      12.53205724       0.48774973      -0.92499276       0.11858962
H        5.64276239       2.45687157       8.66973719      -0.30227700       0.12997130      -0.23142364
H        9.65755234       2.94825243      11.84790448       0.09111021      -0.31539689       0.37312873
H       10.52206240       2.24686160       9.85037718      -0.25675755      -0.57503174       0.48738588
H        9.47904238       2.93100157       9.14024714      -1.05367975       0.47315239      -0.34911924
H        9.05670242       0.39510764       9.47007714      -0.86272245      -0.99160323      -0.55165851
H        4.66843239       7.42792157      10.98535721      -0.18585259       0.20327486       0.15960212
H        5.06175240       5.88459159       9.95599717       0.71609434      -0.03563035      -0.33798536
H        7.30527240       7.11182167       9.73837719       0.20215360      -0.02642235       0.11405122
H        5.08465239       7.20924158       9.00408715      -0.00147513       0.07255763      -0.18590059
H        8.36639237       8.12371156      10.47295723       0.30771664       0.28580878       0.08483135
H        1.39824240      11.45205160      11.70470452       0.68703633       0.60217016       0.35218447
H        3.77855232      11.32865161      10.65594448      -1.16824308       0.85270690       0.46903127
H        4.05846242       8.78357164      11.61295722       0.33249374      -0.47976339      -0.26215751
H        4.60703242      10.58665168       9.60038452      -0.36268228       0.39052306       1.94140662
H        7.23937242      12.27045168      11.59005723       0.01861907       0.20060348       0.56452754
H        6.23761239      11.22205166      10.94275714      -0.90102982      -0.07996124       0.05663512
H        8.17612239      11.52798092       9.73752714       0.13221781       0.73253354      -0.10567321
H        8.26199240      10.08226167      11.54105722       0.21678299      -0.33325056      -0.00084444
H       12.49476243      10.23235158      12.26583849      -0.80104534      -0.06539566      -0.44521428
H       11.94837412      12.27315082       8.97262721      -0.20227893      -0.66835811      -0.16074055
H        9.85308242       9.74398157      11.30915724      -1.41768543      -0.93950192       0.30076894
H       11.57566242       8.96043165      10.57185713       0.19590525       0.26689201       0.22414578
H       11.62926240      10.48235160      10.04101719       0.24337378      -0.31235861       0.40373846
H       10.71799809      11.29524088       8.55243719       1.40356708       0.42532527       0.35629270
Cl       8.98478240       4.60925168       7.69258716       0.29609068       0.69753119       0.59066607
Cl       0.22424621       1.81868166       9.63699461      -0.35291875      -0.20526341       0.06903361
Cl      11.50702808       6.56361165      10.42275712      -0.00516539       0.09856129      -0.04951925
O        2.83118238       1.93135240       0.29759682      -1.15714181      -2.03264120      -0.52228180
O        3.13768237       1.13995233       3.00166714      -0.72504283       1.14542932      -0.59604799
O        0.43900032       3.31877159       0.26339247      -2.32514359       0.42012459      -1.02055543
O        7.36705235       1.04348967       0.10540984      -0.17232818       2.13547390      -0.17429609
O        4.65012241       3.46243167       3.76365715      -0.54994712      -1.58247017      -1.30738921
O        7.72161244       0.34255966       2.67807713      -1.09384744       0.41386417      -0.54320617
O        9.41055233       2.87165235       0.19128219       1.18054538      -1.35206064       1.11139865
O       11.27615811       2.18035235       2.18548722       0.09531431       0.60548361      -0.11770080
O        0.24007222       5.96619157       1.77260977       1.53216732       1.60396173      -0.88566938
O        2.38953241       8.12209168       3.32294715       1.74331173       0.45320308       1.23609028
O        2.78905233       5.37497165       3.36915721      -0.84532168      -0.45477822      -1.36216468
O        1.85371240       8.12634164       0.87481118       0.59984503      -0.44093314      -0.77893263
O        5.64844242       4.72546166       1.41420981      -0.08925653      -0.99173896       1.80049155
O        5.52270234       7.41002168       1.53960985      -1.50567141      -0.16643505      -1.21354984
O        8.27050233       7.60166157       0.98499313      -0.81193436      -1.25090119       0.98980394
O        8.31505239       4.86886160       1.71450980      -0.69309605      -0.44535266      -0.52614623
O       11.21896238       6.78479159       3.71943719       0.31184349      -0.69059026      -2.06490759
O        0.62006667      10.57755168       0.24570431       1.21199336      -0.80246359      -0.06858340
O        5.39608239       8.65123164       3.65306714      -0.39519038       2.11908102       1.32694916
O        5.27780243      11.78965157       3.53993719       0.95414054      -0.28366567      -1.36323526
O       12.29561310      11.97945166       2.37600715       0.29884221      -1.27623973      -0.37180690
O        9.18669237       8.61077090       3.40616716       0.46884620      -0.85149691      -0.63880366
O        9.71200239      11.20505169       2.42643720       0.90707466       1.57142202      -0.96593884
O        1.67564237       0.37885236       5.04454712      -0.25019483       2.53808369      -0.89396991
O        0.19892371       2.25585232       6.45258720       0.57226877      -0.34921285      -0.35686131
O        5.24682239       2.29335166       7.78293721      -2.26808417      -0.08497786       0.05665364
O        6.55387234       3.55468159       5.61981717       1.17899201       1.02128929      -1.37607408
O       10.82346232       2.86719158       4.81086719      -1.00668103       0.65704674      -0.29528189
O        8.44372242       1.67565238       4.74197712       0.27218260       0.17463967      -0.08479816
O        2.03281238       4.33208168       5.71817720       0.12722780      -0.36337494       0.64539512
O        2.04879236       6.90417165       7.08398716      -0.29871607       3.71530217       1.05773677
O        0.58096662       8.27864164       5.39637723      -0.89600372       0.75385947      -1.04933967
O        4.57686236       8.05292088       7.54329719      -0.15670873       0.82299891      -1.43488240
O        6.75407236       7.20767165       5.72400976      -0.06585542       0.18982197      -0.74381444
O        9.10915241       5.13767168       4.37631721      -0.55868331      -0.51028868       0.29511630
O       10.18909231       7.90811161       7.44690720       0.57732830       0.59629871      -0.38109576
O        1.09415738      10.54021082       6.81867712      -1.41673629       1.76046741       0.60317242
O        3.84576242      10.54155158       7.90894714       0.67582487      -0.37403870       0.43273105
O        5.13512244      12.20185160       6.45120723       0.70720953       2.16215552       1.30031516
O        7.99320241      12.09658492       6.35820460      -1.04790810      -1.21574726      -1.01679661
O        8.63191241       9.41907166       5.92266719       0.54287582      -1.54769230      -0.10826496
O        2.67526659       3.40133156       8.45549712       2.46544067       1.35078010      -2.02703960
O        5.20743236       2.70380167      12.28625454       1.89203890       1.04154483      -0.43411117
O        9.51965241       2.29164161       9.88165713       1.56666173      -0.04736884      -0.01461418
O        4.11019243       7.80480163      11.77205719      -0.25730328       1.08311891       0.65744933
O        4.96953240       4.20313168       9.96330721      -0.69955639      -0.56294804       1.42895516
O        5.44571241       6.82267158       9.84684717      -0.07181797      -0.22834890       0.07884764
O        8.26663243       7.37152164       9.81776723      -0.98029162      -0.12675594      -0.00434533
O        2.00896239      12.16985157      11.31909451       0.16820962      -0.59453972       0.34116306
O        4.58346235      10.81075167      10.62600452       1.06151397      -1.38245288      -2.38259588
O        7.15716239      11.35295161      11.23655716       0.97266308      -0.42392097      -0.43152638
O        8.67592237      12.04201292       9.03425719       0.94064507       0.62364098       0.47617896
O        8.91421235       9.31247158      11.49745724       1.08739446       1.02783283      -0.25610254
O       11.55486242       9.90495158      10.88365713      -0.47314554      -0.55415295      -0.23985048
O       11.72514817      11.30895088       8.74494722      -1.59699521       1.00060356      -0.47179097
170
Lattice="12.823848 0.0 0.0 0.0 12.842768 0.0 0.0 0.0 12.841792" Properties=species:S:1:pos:R:3:REF_forces:R:3 REF_energy=-825.29786968 REF_stress="0.001362284876501426 -0.0036086339951166514 -0.0013519871042172683 -0.003609087297199937 0.00024680429414989004 -0.0011632278962287054 -0.0013516386407627702 -0.0011630906953751 0.010035300578766254" pbc="T T T"
Li       7.32841944       7.32294078       8.07636464      -0.29692161       0.12489280      -0.23351876
Co       8.54827937       6.36124083       5.15681474      -0.26679260      -0.48049624       0.94120495
H        1.32766040       3.61509073       0.17232234       0.12235764      -0.85155150      -0.88477187
H        5.75583945       2.17231072       0.24672229       0.07790016      -0.03639980       0.01616765
H        5.94198939       0.67959778       0.55672226      -0.16294508      -0.39747789      -0.12197037
H        7.67910936       1.43021079       2.03087463       0.86750087      -0.78210985       0.48622770
H        4.67518943       3.77424074       0.76770970      -0.48210764       0.38723737       0.04158466
H        5.02439935       4.01337076       3.73404469      -0.21856320       0.68419156      -0.96002020
H        8.12468947       1.88880072       4.23562469       0.14516864      -0.77887144      -0.68312636
H        9.23695937       1.13723272       2.39406466      -0.32363222       0.07840991       0.31343509
H       11.82240944       3.25696078       1.63371472       0.73700583      -0.14821746       0.48154410
H       11.46430939       0.79546574       2.11507467       0.10515779       0.61632495       0.51339223
H       11.63750944       1.52862081       3.49410467       0.68289884      -0.20718815       1.40083019
H        3.40916160       5.27792077       2.43613463      -1.57943375      -0.17781278       0.29793519
H        0.97289045       4.58484078       2.47711471      -0.62403498      -0.14119892      -0.22351523
H        1.46441943       5.58064072       3.61556465      -0.12145826       0.46067301       0.70799200
H        1.21201546       6.70887079       1.67912227      -0.37123512       0.25339270      -0.06722166
H        5.56100942       8.24595074       1.14194265      -0.04611949      -0.26015700       0.59275360
H        4.67636153       5.95661081       1.93679463       0.33583189      -0.19045876       0.27367013
H        4.93637941       7.86392079       3.63632469       0.05263773      -0.10843365      -1.12128351
H        6.58105944       7.38620079       2.12863470       0.20607367       0.13223824      -0.20191894
H        9.70950944       5.30177081       0.48972227       0.65912414       0.21997736      -0.58796984
H       11.74110945       4.33685079       0.63052571       0.29804475       0.57525948       0.06418612
H       10.26798943       8.00895082       2.17713468      -0.34969817      -0.69474381       0.38554155
H       12.77535022       7.68818074       1.51232228       1.03386570      -0.04925043      -0.09329957
H        1.61066157      12.10618074       3.53945468       3.30744380       0.36846655       0.86310265
H        3.49274936      12.31038075       2.79313466       0.35306674       0.33980941      -0.61209748
H        0.57156159      10.84988080       3.62024471       0.92662378       0.79370452       0.06539597
H        0.13634046      11.95888075       1.77232235      -0.66796639       0.48683926      -0.23351192
H        3.91308945      11.61448075       4.04270462       1.23296974      -1.77877247       0.91934050
H        4.39577946      10.00894075       0.35942674      -0.01735420       0.44883787      -0.28208686
H        7.88343942      11.82051830       3.23889472       0.24956630      -0.11688555      -0.32458914
H        6.11765944      10.57368078       4.03003465       0.25792832       0.13864493      -0.23731157
H       12.54711920      12.52428077       0.27022226      -0.08743147      -0.30161791       1.51270978
H       12.37340941       8.86360078       3.90507464      -2.57153442      -0.94745275      -2.04832652
H        8.66301947      10.94724825       4.23131472       0.19526352      -0.36439379      -0.00967825
H       10.82720948       9.28219076       1.68575467       0.11506930       0.12048842       0.44095406
H       10.36851942      11.25328074       0.97466867      -0.04067125       0.50050783       0.79029817
H        9.03504943      10.69908077       1.87378471       0.57962578       0.66002079       0.30943163
H        3.20872947       1.15621330       4.65752470      -0.15951055       0.26028623       1.19160007
H        0.47548237       1.93982080       5.41211471      -1.68161656      -0.82596764       0.07803513
H        3.03867948       0.80485175       6.82451475       0.37285667      -0.58825182       0.98134456
H        3.81529940       2.34231326       5.53145464      -1.17699334      -0.74324000      -0.36328534
H        3.70236939       1.05920777       8.20766465       0.41137589       0.36449484       0.54110928
H        6.13397945       3.36083077       4.68632473      -0.87796631       0.02866058      -0.21758535
H        4.58288940       4.05024081       7.77207465       0.21678269       0.11334459       0.31379693
H        7.72003936       1.66317076       5.79492469       0.30475058      -0.64492107       0.06682823
H        8.04235947       0.73421319       7.79423470       0.51402403      -0.18199709       0.26023564
H       11.78870722       2.16326081       5.86772468       0.11761657      -0.09570852       0.06798032
H        8.72177937       3.66509070       5.47995469      -1.35972269      -2.08026370      -0.83086750
H       11.50910938       4.10391073       8.00157469       0.20922966       0.19512894       0.06377696
H       10.07877945       3.94764071       8.50018463      -0.47420698       0.02330601       0.32075332
H        0.88759442       5.66076071       8.23686470      -0.34910451      -0.13364183       0.43531943
H        2.46206940       7.08764073       8.24893470       0.05593241       0.74261485       0.17110528
H        2.77171941       5.71002082       7.49618466       0.29968062      -0.01570469      -0.02644134
H        1.73447941       6.85756075       6.01914469       0.03925616       0.94045204      -2.67711557
H        1.22055139       7.89507079       4.86973467      -1.64764428       2.12780977      -0.07764816
H        3.83014941       7.95832078       4.77780465      -1.42667225      -0.43334349      -0.07789661
H        4.76107946       4.38550074       6.25736469      -0.40455312       0.23524386      -0.05103137
H        5.92302946       5.85080079       6.76511465      -0.64941820      -0.51987940      -0.02560225
H        5.91857946       7.21775081       5.92468470       0.32196901      -0.99811652       0.17401614
H        9.77710946       4.32374077       6.37213474       0.92324984      -0.11463817       1.14619964
H        5.15293945       9.60510083       4.76364464      -0.17453078      -0.01729710      -0.27733689
H        4.69850947       9.13148075       8.25154467      -1.32219244      -0.25653332       0.06931845
H        4.92772947      12.27342928       7.30931462       1.35889368      -0.84242459      -0.23640862
H        5.74094942      10.14019075       7.59721464      -0.08964656      -0.40209264       0.81607123
H        5.54192946      11.64064827       5.99520464       0.52790333      -0.40127440       1.06123986
H        7.12677944      12.69848071       6.97084466      -0.09807282      -0.05402251      -0.25989943
H       12.49240946      11.17108073       7.04033468      -0.23382956      -0.10728903      -0.28265106
H       12.59210936       9.86285080       5.10375464      -0.44223168       0.08453376       0.29072729
H       10.32343936      10.92388070       6.06029467       0.46076891       0.22647946       0.05276377
H       12.20380940      12.15148078       5.83627474       0.26916487       1.07579729      -0.34268716
H        9.09798938      11.86578070       6.20120471      -0.39655959       1.23483656       0.70553881
H        1.77983941       4.08365075       9.39630468       0.18611650       0.33387905       0.22817984
H        1.72409940       0.03891320       8.60014463       0.81472337       0.17287472      -0.19225977
H        3.69627947       3.09867071      12.56434801      -0.25884254      -0.00709319       0.32725820
H        1.37986154       1.36611318      12.15771471       0.04547073       1.21954515       0.14155998
H        1.89938947       3.43949079      11.45721472      -0.14034677      -0.34573638       0.74720212
H        4.06870940       2.81446078       9.63184472      -1.03734113       0.29191762       0.22861468
H        8.00703939       0.73022576      10.10001474       0.48651763      -0.73034878      -0.43437996
H        7.71970941       2.63910075      10.53910708       0.05666891       0.41138187      -0.02283081
H        7.00126936       1.79996075      11.69383707      -0.24719739      -0.17950547      -0.83702386
H        5.56613947       2.61831075       9.70141475       1.04820076      -0.43355332       0.44113274
H       11.32200944       1.82365077       8.79809469      -0.06340757       1.84094233      -0.97621263
H       12.06840945       0.58124080       9.25229463      -0.21152613      -0.15047136      -0.07113448
H        9.48467944       0.36924087       9.53334471       0.94722500       0.36217359      -0.06151273
H        2.99205941       8.36077073       9.84612467      -0.15822952      -0.36211767       0.07795972
H        2.19458945       7.65440079      11.95298701      -0.69185118      -0.35958176      -0.06620908
H        3.15683944       4.54246080      10.11701470       1.17133275       1.98081499       0.13522101
H        3.93626945       6.39270073      11.02091469       0.43794100      -1.05710939      -0.12537471
H        0.06317540       5.64507070       9.60384473      -0.07612208      -0.37556964      -0.51954642
H        3.49987942       8.43933071      11.98258708      -0.09057784      -0.65709809      -0.55712830
H        4.54562946       4.94162083      11.57471468      -0.03819027       1.01196116      -1.44825997
H        6.07216940       6.12762074       9.92583470      -0.45852958      -0.61056800       0.16874300
H        6.80179941       7.41786078      10.30865469       0.48085440      -0.32109231      -0.13182434
H        8.15578935       5.27565081      10.08104702       0.49996107      -0.10405696       0.15922167
H       12.75463227       6.99435074      12.45251462       0.16607643      -0.01654551      -0.27685538
H       12.05321729       7.75139079      11.25351474      -0.12165046      -0.69619882       0.00596524
H       10.85710943       5.90480078      12.28551469      -0.37661659      -0.43242371       0.42731654
H        9.48920946       4.63487081      10.74906705      -0.22285423       0.30759717       0.39301443
H       10.45540945       8.17109834       9.20395466       0.60320045       0.85518386       0.75151123
H        0.77616159      10.95018076       8.93046468      -0.86031922      -0.63492404       0.04865296
H        2.08940940       9.06185073       8.83330470      -0.48238780       0.16025031      -0.46040490
H        1.11985944      12.67518072      10.08019471       0.19127841       0.29460739      -0.38377034
H        2.05096158      12.82578079      12.28641464      -0.31716048       0.20552412      -0.19523894
H        7.34338936       9.44719078      10.83921463       1.56601404       1.30668899       0.11045023
H        6.10579943       9.25460077       9.80590469       1.03819078      -0.45204801       2.04197743
H        5.19614940       9.21186081      12.04290704       0.24824058       0.28496985       0.28152871