170
Lattice="12.963674 0.0 0.0 0.0 12.388839 0.0 0.0 0.0 12.58295" Properties=species:S:1:pos:R:3:REF_forces:R:3 REF_energy=-826.73849981 REF_stress="-0.002687684312763129 -0.002908153607729888 -0.00010267375510563935 -0.0029078785069736554 0.00841222942278999 -0.0030533311786545324 -0.00010229243010559352 -0.0030524368827439577 0.003901145852995336" pbc="T T T"
Li       4.84287522       5.26284912       3.40342808       0.50300997       0.18581736       0.39160511
Co       9.26098515       1.82967904       8.34878811      -0.24832987      -0.95735964       0.64628164
H        3.06602086       1.12420997       2.27215793       0.71176143      -1.42289620      -0.06194141
H        2.91372076       2.91707904       3.24248812      -0.11361711      -0.04026832      -0.26236508
H        1.36162087       2.70612908       2.80899806       0.19202611      -0.43090025       0.13085571
H        2.39336523       3.37358906       0.79675782       0.17596494       0.06565848      -0.82386666
H        5.13169513       0.57910997       3.09790813      -0.84027990      -0.07796473      -0.67081392
H        6.83996517       1.78365909       2.17896810      -0.00587719       0.02329877      -0.25511907
H        6.70599518       2.57066914       0.81701008      -1.54362830       0.72945496      -1.54742235
H        8.61508511       3.46305903       2.46683807       0.03716243       0.82802741       1.25511362
H        5.20625518       2.83102914       3.72160811      -0.25375847      -0.29543168       0.02674246
H        6.30064520       0.51750993       4.11502814      -0.12381818       0.91766290      -0.63333057
H        8.72907522       1.63490989       0.76925791      -0.85703379       0.26319573       0.47418277
H       12.43061948       1.30418908       3.40528809       0.60105064       1.93239226      -0.40920745
H       12.11193956       2.57893906       2.37119808       0.23262184      -0.35151131       0.17165964
H       10.85899512       2.30659905       0.28464911      -0.76798051      -0.37766148       0.17395532
H        9.61379518       4.00269915       3.66942812       0.48641588      -0.58220258       0.48839249
H        2.93396523       7.45964911       2.46565791      -0.18116066       0.59760585      -0.87485607
H        1.15955815       7.61315909       1.24236815       1.25479220       0.11786175       0.08890674
H        3.14986524       8.18605903       1.02645794       0.91649862       0.17255832      -0.51191753
H        5.37944520       5.00844914       0.80809908       0.07801523       0.29130880       0.72859144
H        5.01338513       6.50257907       1.08580417       0.44413431      -0.44333546       0.50022883
H        7.51274512       5.15656911       4.08933816      -0.32202497       0.20153966      -0.01330702
H       12.65307250       7.31450903       1.40168806      -1.32763672      -0.30809986       0.35784548
H       10.63669520       4.52634911       0.42855792      -1.01876434       0.82212845       0.51786924
H        9.47764523       4.76116903       1.50985790       0.33157519       0.82492817      -0.66774620
H       10.90140954       6.72826904       3.22324816       0.69045484       0.63054059      -0.06440796
H       10.58573953       6.28600903       1.78340809       0.06830351       0.62559710      -0.59310148
H        3.08382077      11.87394910       2.43345789       0.12047073       0.41588066       0.22159052
H        2.12302076       9.84189912       2.64559813      -0.13977762       0.47655010       0.25168753
H        0.15646623       9.24894908       0.05031947      -0.59813588      -0.25231270       0.01209137
H        0.45102088      11.43024915       3.52485782      -0.14952764       0.41858356      -0.13826915
H        2.78632077      10.21544913       3.94140809       0.20448083       0.23562475       0.53192660
H        4.39834512      12.16354912       0.64308716      -0.48767101       0.12795358      -0.18601948
H        6.79325523       9.26618914       0.02033908      -1.23982272      -0.49055496       0.29978609
H        8.20575515       9.28737914       0.79964510      -0.26435347       0.02457305      -0.35954888
H        8.45746524       8.55342912       3.45642809      -0.51821638      -0.05243700       0.06550749
H       10.03824519       8.38434909       2.29618810       0.04434427      -0.81433577      -0.53150731
H       10.52209515      11.92944912       0.93493510      -0.72015868       0.93107914      -0.36541759
H       11.99209519      11.76254903       2.89615789      -0.61978828      -0.59198079      -0.91225158
H       11.59699520      10.81344911       0.80576910      -0.09547837       0.12357295       0.03396571
H        9.95615519       9.88072909       2.11606807       0.35973291       1.48280405      -0.29260660
H        3.58967514       3.68282911       6.81668809      -1.23819700       0.36840636       0.10146969
H        1.48857517       2.87870994       7.89854813      -0.74957550      -0.23026119       0.02673985
H        4.58373513       3.23447912       5.12115807      -0.36688668       0.57894228      -1.32310198
H        4.82806513       1.48390988       7.35229810      -0.31469718       0.72373839       0.12293940
H        8.29679515       0.20590994       6.50143813       0.03138947      -0.36431366      -0.10613275
H        6.25706522       0.31880993       6.68375816       0.14120465      -0.33020418      -0.38715203
H       11.49622959       3.21216905       4.33730809       1.75745448      -1.54406377      -1.22481107
H       10.69013950       3.29202912       5.65451813      -0.02814655       0.11376001      -0.03035516
H        2.21612082       4.98710912       7.85298816      -0.18951512      -0.05700277      -0.21393604
H        2.68157519       6.55086904       4.35252818       0.10896275      -0.22454135       0.40443553
H        3.79429520       7.65415909       4.41267808       0.12536887      -1.95352479      -0.05029743
H        1.41379914       7.53690988       5.75051811      -0.14315212       0.78111605       0.80897286
H        1.74192076       5.08422907       6.33752809       0.23151491      -0.67392483       0.75266540
H        0.35701013       6.64830998       4.99413810      -1.65811402       0.08319031      -0.21828667
H        1.81588513       7.92126903       8.08798810       0.40914586      -0.16642567       0.22101388
H        6.93133522       6.58756911       4.41142809       0.14538534      -0.81188824      -0.16112506
H        8.04173524       5.45892914       8.36546807       0.15523021      -0.04024106       0.22906060
H        5.03975519       4.13338913       6.93356810       0.49742161      -0.04536761       0.06283285
H       11.41789516       5.42978910       4.75871814      -0.19890866      -1.96503309       0.10709750
H        9.57663520       7.17482908       7.76104807      -0.50141119      -0.90179257      -0.16221968
H       10.97539518       6.63073914       5.57697809       0.11382538       0.25191263       0.31377956
H        8.78292516       7.70938903       4.71320813      -1.11542178       0.38026548      -0.22740444
H       10.49859512       8.18409912       7.22677814       1.46377958       1.70957976       0.09487140
H        3.34073512      11.91504821       8.01838815       0.22719830       0.21210954      -0.26504278
H        1.86544513       9.47400907       7.62154807      -0.16495280      -1.06419489       0.02102236
H        3.16305513       9.32897913       5.97000817       0.24540303      -0.14339008       0.24460005
H        1.78632523      12.14368820       7.87836810       1.30535230      -1.11635458       0.13106002
H        4.71595515       9.51766908       5.63864813       0.63274881      -0.15508653       0.24998703
H        7.00133517       9.02448909       5.35275809       1.36332882      -0.92710168      -1.81167567
H        6.70064521       9.06195913       6.84791809      -0.02014394      -0.39474935       1.37622760
H        6.52227516      11.22884912       6.19117806       1.01870146       1.55978109      -0.87103903
H        9.94776523      12.35744907       6.54856807       0.73290518      -0.27769052      -0.38802450
H       12.72897650       8.87370911       7.75390813      -0.12682283       0.29471882      -0.65078066
H       12.02809519      11.42864913       5.55803810       0.05186736      -0.10190457      -0.37580658
H       11.55839521      11.11514906       7.06830809       0.40211280       0.26657088      -1.13315258
H        0.20568723       2.00420991       8.54498814       0.62619747       0.48268928      -0.85120686
H        1.33820212       1.88316909       9.93282816       0.05508083      -0.07008771       0.76206336
H        2.10537513       2.85235913      11.90760808      -0.07366700      -0.41054046      -0.29827229
H        1.13078022       0.71156004      10.97170812       0.34402522       0.29740713       0.14447389
H        4.18577522       3.74007905      12.29910808      -0.58689919      -0.39448027      -0.26834998
H        5.33777516       0.80369014      11.15578837      -0.26988692      -0.36295449       0.44751474
H        7.46455513       1.12440993      10.26901842       0.50122180      -0.21448700       0.14053550
H        5.22741514       0.87510994       8.73029813       0.10811847       0.37810953       0.39973011
H        5.58330521       2.37266910      10.99255832       0.06905985      -1.12299504      -0.21955999
H       12.16839520       2.85935907      12.21870730      -0.65552989       0.21289039       1.23009206
H        9.31974521       1.08100997      12.03050814      -0.11691047       0.09930404      -0.00736295
H       11.50840948       3.80019824       9.83130816      -0.72909673      -1.61261557      -0.11410877
H        3.46256514       6.02710906       9.31157834       0.05434859       0.12276473       0.48980337
H        1.99113521       5.94805909       9.97744831       0.32910061       0.09456623      -0.23254685
H        1.57802076       5.07800913      11.90310816       0.15175118      -0.24714234      -0.11103911
H        0.70712086       6.40903913      12.07580815       0.63939127      -0.69045187      -0.87965363
H        5.12373517       6.98702914      11.00390814      -0.11539134      -0.70744713      -0.32962471
H        5.82164521       6.53702909       9.69362817      -0.50357997      -0.67249857       0.94078257
H        5.29330522       4.45510908      11.42880807      -0.07620098      -0.63179724       0.67969187
H        7.42014521       8.03389906       8.75502816      -0.53385562      -0.16335036      -0.17066041
H       12.48173758       4.83395829      10.26040816      -0.07840271       0.33467454      -0.75457217
H        8.74979519       6.13643907       9.66196808      -0.60387731       0.25699198      -0.99067593
H       10.01536949       6.52993908      11.86270808      -0.15424051      -0.07563203      -0.62594586
H       10.82871950       6.11196913      10.57410816      -0.43239420       0.04662695      -0.10982442
H       10.80596955       8.23813911      10.61330807       0.23684879       1.48103552      -1.60281229
H        2.32017517      11.26814911      10.07763842       0.27076187      -0.30364327      -2.35766715
H        0.56626833      10.45404913      11.79330732      -0.38252237       0.30386757      -0.28314688
H        2.66696513      11.47734904      11.47095831       0.76696258       0.26570345       1.12251835
H        4.73521515      10.95034913      12.31282840      -0.01706415      -0.22058931      -0.11967603
H        8.64032513      12.32194910      10.17213839      -0.34314636       0.55562587       0.14201785
H        7.16697515       9.51886906       8.97467815      -0.40752702      -0.26863686      -0.00173254
H        8.35828950      10.36847830      11.16030817      -0.59526617      -0.58771392       1.26341534
H        9.64887955      10.20556829      10.27310813      -0.93912393       0.66752052       0.04724581
H       11.70715959       9.41607911      10.96880812       0.59749689       0.88224152       0.08340915
H       11.75622956       9.33970910       8.80886809      -0.62174489       0.04965235       0.22763236
Cl       7.73015515       3.33356915       7.76768809       0.02005480       0.26562447      -0.10886742
Cl      11.37019519       1.56761904       9.09971807      -0.30913487       0.08832851       0.21956476
Cl       4.67657513       8.69767907      12.45650807       0.09718161      -0.31277148      -0.18790165
O        2.30742086       2.58563907       2.51658816       0.00507454       0.48168473       0.15602342
O        3.66392082       0.26420996       2.20575783      -0.81252634       0.95224954       0.08393547
O        5.93925516       1.07420986       3.34563811       1.08923228      -0.74721101       1.54434317
O        7.31943522       2.32742902       1.47870817       1.73210815      -0.62660488       1.77431547
O        4.47997518       3.39510909       4.08122807       0.33751307      -0.17187124       1.10744898
O       12.51947458       2.36455912       3.25201807      -0.34364692      -1.68005991      -0.10890087
O       11.53649515       3.01315908       0.41266515       1.66069384       0.22404449      -1.23436572
O        9.55231521       1.28150995       0.38555783       0.95447201      -0.70443134      -0.81503367
O        0.35339223       7.43889905       0.71122106      -0.82879754       0.16845111      -0.92451381
O        2.50423524       8.02611912       1.74595783      -0.03400413      -0.39276495       2.18145256
O        3.65721523       6.64051914       4.16236809      -0.13927181       2.25551056      -0.28692871
O        5.32541520       5.67846903       1.55946806      -0.53063463       0.18033760      -1.14321667
O        8.91012512       4.24987903       3.04268810      -1.17048375      -0.56907250      -1.68637869
O        9.93644522       5.23317909       0.72465789       0.77906786      -1.55648522       0.14735367
O       10.95831955       7.08503911       2.28740809      -0.03026102      -1.00805012       0.60784788
O        2.14622081      10.60124911       3.30169807      -0.00038233      -0.99683749      -0.87602018
O       12.61039518      12.01014903       3.59545786       0.64234320       0.22851483       0.90945048
O        9.38218514       9.11132903       2.12263813      -0.90074286      -0.60320742       0.62595308
O       10.94519513      11.22904907       1.43596817       0.99645713      -0.74997643       0.44223493
O        1.18980318       2.02840989       8.31824816       0.22811753      -0.28222480       0.21173193
O        4.50502514       3.34530906       6.74842810       0.74222135      -0.49945157      -0.30361609
O        4.91464523       0.64310997       7.83403812       0.05318219      -0.66299649      -0.16768479
O       10.87073956       3.74350914       4.81119811      -1.58487320       1.24743725       1.28862266
O        9.16471522       0.36920995       6.98109818      -0.59025729       0.76927537       0.47838757
O        2.05632084       4.41469904       7.02680814      -0.03310588       0.80741029      -0.32921518
O        1.25810813       6.69730995       5.31332816       1.54875254      -1.16144549      -0.43277464
O        6.72655518       5.61111909       4.48477813      -0.16014978       0.35292705      -0.16598848
O        7.98588514       8.05640909       4.20722807       1.63730523      -0.02544872       0.38460752
O       11.54039514       6.37128910       4.80380814      -0.01267903       1.70778202       0.05833226
O       10.09447513       7.37018906       6.95245813      -0.88183540      -0.94134716      -0.42136657
O        2.49757515      11.41344827       7.97042811      -1.55199713       0.91630680       0.06694466
O        1.63551518       8.52770902       7.34468806       0.09677671       1.46995599      -0.01617373
O        3.84369522       9.25503906       5.27589816      -0.91056761      -0.00025076      -0.80334301
O        6.80390515      12.22814911       5.98902818      -1.10395752      -1.42701526       0.74023474
O        6.47313518       9.46494911       6.00034818      -1.69099531       1.70429451       0.64774743
O       11.52799513      11.78044905       6.30708817      -0.50668749      -0.24990124       1.43064468
O       11.88199950       9.37765909       7.81940817       0.62818556      -0.13615489      -0.43937892
O        2.54285519       3.59553908      12.40250809      -0.24996083       0.11285395       1.40888860
O        1.23182921       1.69418912      10.93590811      -0.08468482       0.15962052      -0.43012528
O        8.46206514       0.95940992      10.17672839      -0.11165966      -0.27864543      -0.46504643
O        5.16361519       3.71442907      12.11350817       0.87381709       1.22585508      -0.93496307
O        5.79028517       1.45823909      10.58916831       0.09236225       1.02432101      -0.23866601
O        2.50637515       6.01962905       9.10509842      -0.38126362       0.13541983      -0.14777050
O        1.11052085       5.75950914      11.36490807      -0.90798148       0.64224541       0.82190020
O        5.22790517       6.16522913      10.41860818       0.55187678       1.34009956      -0.54588667
O        8.21630512       6.31796914       8.81899812       0.53889205       0.07343963       0.95049765
O       11.77168952       4.67552820       9.57084814       1.08125881       1.68942645       1.09659560
O       10.12915957       6.75084906      10.89310809       0.51612606      -0.27019741       0.55774661
O        1.89346520      11.30274904      10.91697832      -1.10088744      -0.00203539       1.41593418
O        4.38644512      11.86864903      12.27519934       0.26779602       0.15787575      -0.05533521
O        7.71554521       9.49893913      12.54179330       1.66326184       0.50309994      -0.08151262
O        6.70715517       8.71557908       8.61783814       1.12359829       0.31169039       0.22372317
O        8.77062950      10.72849822      10.36410815       1.52420803      -0.14868187      -1.41231975
O       12.71244548      10.04494910      12.19662636       1.01023717      -0.25490558       0.38137342
O       11.16724952       9.17095911      10.18110814      -1.40311356      -2.32262509       2.14477610
170
Lattice="12.932623 0.0 0.0 0.0 12.359165 0.0 0.0 0.0 12.552811" Properties=species:S:1:pos:R:3:REF_forces:R:3 REF_energy=-826.43869278 REF_stress="0.005807217961621625 0.0012897959146153084 0.0008153628089690323 0.0012894663566919526 0.009631570995147054 -0.002107159445576152 0.0008160972411063658 -0.0021069464852847765 0.005497381996250884" pbc="T T T"
Li       4.92258959       4.54209192       4.84578845      -0.29067190       0.08457957       0.03071229
Co       8.96255960       2.03882183       8.31046844      -1.14519911      -1.08979861       0.31987870
H        3.50644641       1.40614716       2.34012752      -0.26199637       1.98898159      -0.37273622
H        1.39044645       3.16529184       2.63647842       0.48873358      -0.54383208      -0.25165029
H        2.67059960       3.79843183       1.03562761       0.78490302      -0.45284327      -0.74593232
H        2.68924650       3.87525183       3.06771844       0.52384268       0.50813913       0.32058849
H        3.07964644       0.13854710       3.00632754       1.04235320      -0.29893910      -1.08613097
H        6.87117960       1.16952193       2.01317839       0.19055905       0.12841174      -0.58966525
H        6.48641958       2.06363186       0.73185750      -0.57778243       0.66652892      -0.23267040
H        8.21923950       3.39404194       2.67856850      -0.33911871       0.53264986      -0.31961641
H        5.46774957       0.27664717       3.30043839       0.47580743       0.42612660       0.20624009
H        8.81356957       1.34684715       0.32492750       1.07283726      -0.58323833      -0.05326208
H       12.26805258       1.83592191       2.82493841       0.28993173      -0.20961838      -0.54814300
H       12.42856764       3.09464191       1.75842850      -0.40749590      -1.16872836       0.83947708
H        9.43024955       3.81744184       3.35180838       1.22270744       0.06965644       0.97148586
H       11.39984265       3.06139193       4.00800845       0.39388839       0.22446674      -0.45534916
H       10.95846956       2.27295187       0.18908086      -0.71710180      -0.87094903      -0.32115757
H        3.44287959       5.93357185       3.13138843      -0.26298622       0.33967012       0.04529835
H        1.34967958       7.67307188       1.53409848      -0.09341171       0.65898913      -0.73571589
H        3.62153951       7.75698184       1.50252753       0.38730375       0.07332793      -0.14012354
H        3.07948957       8.13904193       2.92772761       0.07371684      -0.12721137       0.32952170
H        6.55017961       6.29920192       4.08418845       0.20529718       0.21072756       0.13498122
H       12.78256664       7.63008189       1.28539842      -0.82287245      -0.35778531      -0.10213990
H       11.33329267       6.64805182       2.94860846      -0.03263283      -0.37619581      -0.96197235
H       10.97655260       6.24520188       1.36591843      -0.64589199      -1.15522831      -0.28641940
H       10.63536957       4.28904186       0.14382760       0.11800021      -0.94121375       0.29630026
H        9.21801951       4.85367190       0.70492757      -0.64909397      -0.69818024       0.90480866
H        0.32474554       9.27172193       0.07580605       0.48653425       0.09168391      -0.00806235
H        4.23608949      11.77941191       0.85470244      -0.24211932       0.73882192       1.12128969
H        2.37484642      10.78361189       4.17929846      -0.66657379       1.04346950      -0.86607994
H        4.66838957      10.41461184       0.21933539       0.25778318      -0.84613660      -0.04692133
H        8.39736957       8.47215183       3.30279844       0.24846986       0.48575948      -1.09418257
H        8.75739957       8.94870194       0.31443348       0.27823932       0.14982998       0.04467079
H       10.25152957       8.30712188       1.80132849       0.37242176       0.26668959       0.20686864
H       12.92486959      12.06431192       3.44732762       0.19163181       0.27586866       0.55924902
H       10.43782957      12.05531185       0.41441348       0.80693360      -0.78976391       0.97607220
H       11.59396960      11.78161184       2.80512757      -0.16940462       0.97669089       0.26192537
H       10.16080955       9.93571188       1.64011839      -0.06748618      -0.63706698       0.21049522
H       11.73476953      11.11881184       0.35801847       0.84003232      -0.77004947      -0.62699263
H        1.49285950       1.63194712       6.36418851       0.37162764       0.09725908       0.03883715
H        2.50517958       2.95414194       8.21483850      -0.11599609      -0.34183860      -0.15028201
H        3.54444957       3.73381194       7.36600838      -0.05906580      -0.99351530      -0.11862356
H        0.31568352       0.68264710       6.07802848      -0.10189902      -0.26377640      -0.06928001
H        6.45465951       0.21334712       4.56440841       0.27368870      -0.57346577       0.18477952
H        4.32082959       1.31474706       7.71973844      -0.48284662       0.71547447      -0.00801312
H        5.60201956       1.88118192       4.45640842      -0.75754456       0.84927469       0.05107702
H        4.33095959       2.16613185       5.43975847       1.09957191       0.83325909      -1.13411616
H       10.58239263       2.75907193       5.31697842      -0.06896283       0.78741172      -0.89726027
H        9.86616961       0.24064715       6.59797846      -0.38322783       0.23051740      -0.16257705
H        2.62918960       5.66857183       4.49130849      -0.00742005      -0.44294266      -0.87234567
H        1.56472958       6.46194715       6.06076849      -0.12814016      -0.21374811      -0.09705073
H        0.29549854       6.02944708       5.26666838      -1.19176237       0.06405687      -0.50492454
H        3.95136951       6.06732186       7.16233840       0.10210147      -0.58858190      -0.27055629
H        7.38672956       5.03330186       4.27652839       0.48059674      -0.29981773      -0.38364618
H        8.33950953       5.72139193       8.11025839      -0.89476197      -1.62469288      -0.12792753
H        7.43225951       8.04192189       8.17914847      -0.46014597       1.18560821       0.41394409
H        5.30557952       5.29691184       7.27719850       1.21999439      -0.19333775       0.76591242
H       11.16536954       5.18772184       4.84190850      -0.08589207      -0.24513796      -0.06444677
H        9.39680954       7.14358191       6.67583840      -0.05444696       0.62529757      -0.12846877
H       10.97166950       6.74491183       5.22608841       0.48961176      -0.75431348      -0.56297247
H        3.45974955      11.31997467       8.24556840      -1.11626333      -0.94398120       0.08398755
H        2.05074648      12.23491190       4.64765840      -0.72852742       0.30283966       0.36482004
H        1.61437960       8.33244185       7.21098845      -0.02655566       0.69641919      -0.21491207
H        1.65934956       9.92391185       7.36690842      -0.02593243      -1.05155600      -0.78590156
H        2.53878953       9.05537191       5.24656845      -0.76672071      -0.16430854       1.37565228
H        4.15082949       8.97767182       4.92117850      -1.75692969       0.26834990       0.00467756
H        8.17989949      12.33541193       6.54851850       0.24790936       0.58207688       0.45119574
H        6.10239956      12.24231182       6.93107847      -0.09264460      -0.52990385      -0.44308586
H        6.31707955       9.01164185       5.05932846       0.54917399      -0.42098596      -0.06581315
H        5.97977954       8.88581184       6.68121841      -0.25596885       0.56123985      -1.91954114
H        6.50770952      10.85291182       6.21655841      -0.67883810      -1.16662817       0.00317180
H        8.41793955       8.42068184       4.78421842      -0.19905960      -0.52667200       0.06323615
H       12.64828657       9.40961190       7.00278841      -0.95129357       0.68630673       0.07558720
H       11.35876955      12.26571192       5.11123847       0.12822582      -0.45701107      -0.02365858
H       10.19156953       8.54829182       6.47813841      -0.35893265      -1.34344720      -0.86038962
H       11.48707268       9.61414186       8.09809848      -0.02155956      -0.22618136       1.18233829
H       11.43416958      11.28681182       6.54654846      -0.23915877       1.83761292      -1.20459903
H        0.16704642       3.13894186       8.72328847       1.20948861      -0.18100880       0.87846896
H        1.94817952       2.51644187      12.02163845      -1.50473969      -0.65355372      -0.56915383
H        1.02594641       2.78307182      10.04528850      -0.16158089      -0.52252937       0.71820411
H        1.36752453       1.05770189      11.51063849      -0.05101663       0.98826037       0.14569905
H        5.86078958       1.56318184      11.05627934      -0.28454147       0.04959132      -0.14813129
H        5.35239950       0.07769688      11.34253929       0.90210326       0.83967327      -1.25803583
H        7.35747959       0.70394713      10.11827933      -0.47807219       0.03544414       0.28293269
H        6.32777949       4.04995184      11.96763839      -1.42945278      -1.34569443       0.24431957
H        4.79143960       3.53183192      12.29353848      -0.31130590       0.44492028       0.10868363
H        5.09075960       0.58164714       8.87433845      -0.30878727       0.00758509      -0.62583758
H       12.26886953       2.62183193      11.94103333       0.13756283      -0.06761490       0.61367335
H        9.23386961       1.03384710      11.46793848       0.53298434      -0.27833854      -0.16103661
H        1.84974648       7.09276189      12.35933843       0.20587676       0.20708919       0.11133836
H        2.91798956       4.86639183      12.45183846      -0.03722111       0.20430025      -0.47072482
H        3.43444649       7.10325185      11.96993844      -0.67962619      -0.02305668       0.02014088
H        1.29178359       6.08184660      10.74563844       1.17932680       0.47415331       1.30578211
H        1.85034953       6.75373183       8.64426928      -0.11007978      -0.21681845       0.27138891
H        0.89405150       5.17707664       9.62569849      -0.00077524      -1.03993362      -0.28012689
H        3.20759949       7.53383193       8.53587940      -0.16943385       0.07608062      -0.01866625
H        9.50990959       6.50543188       8.71132840      -1.02523365       0.24810723      -0.17178908
H       10.40057262       5.67447184      10.75083844       0.43818418       0.75991860      -0.61153430
H       11.68411257       5.88723190       9.81565842       0.15613276       0.05574030       0.30454293
H       11.22180259       8.06617193       9.99880845       0.32348517       2.13265728      -0.12149684
H        0.64964459      10.64881184      11.75483937       0.28083831      -0.63602389       0.33427912
H        2.26052953      11.39861183      10.16545932       0.18307323      -0.33663345      -1.10673739
H        2.97543950      11.55191182      11.55216934       0.37599871      -0.22281673       0.36622327
H        3.30476953       9.84978664       8.86553843      -0.03004286       0.29513377      -0.32092610
H        7.42886948       8.43910194      12.39387837      -1.20125251      -0.23544494      -0.07227748
H        4.47540949       8.57257189      10.38653842       0.23146441      -0.17272280      -0.61637200
H        5.28632957       8.51175183       9.01047845       0.87868075       0.34662482       0.01293513
H        7.64649953       9.52498186       8.71978849      -0.89054328      -0.52248353      -0.28832987