197
Lattice="12.968845 0.0 0.0 0.0 13.21169 0.0 0.0 0.0 13.179508" Properties=species:S:1:pos:R:3:forces:R:3 stress="-0.005798358819741929 0.0005018922068644881 -0.0018259692108971264 0.0005021423291011987 -0.0018148217382850979 -0.001334385443055892 -0.0018263639863493385 -0.0013347393428648389 -0.0002035921918752792" pretrained=F config_weight=10.0 head=target_head energy=-1148.42179178 pbc="T T T"
Li       4.23971042       4.26881143      10.05627926      -0.10325775       0.15250243       0.30709934
Co       6.53871906       3.76767142       0.04130076      -0.28206926      -0.42054691      -0.61807878
H        1.32150038       1.77941157       3.39240916       0.10491585      -0.23556994       0.35275468
H        4.22292043      13.15289143       1.17038081      -0.10946836       0.71568879       0.27605715
H        7.84468044       1.56670151       1.92914079      -0.28375165      -0.47661065      -0.44237236
H        6.78657936       0.30771149       3.70214922      -0.29101775       0.30612338       0.59882134
H        7.30189434       3.63926145       4.01119921      -0.05009151      -0.16705708       1.10202250
H       12.53748520       0.92026158       1.94362916      -0.06565410      -0.55793235       0.02313236
H       11.82444035       2.85070140       2.53080921       0.60679165      -0.40306911       0.44044957
H        9.34745039       0.89552150       1.59238076       1.55493050       0.12530643       0.17516835
H        2.03044034       6.28337443       1.45389919      -0.01582408       0.30260137       0.21627421
H        0.44699562       7.47936041       3.01680925       0.47754885       0.74394356       0.14294277
H        3.11909043       7.64362149      13.11620765       0.16362490       0.83108976      -0.36091425
H        3.90242046       7.31663744       2.61713921      -0.33953784       0.06135464      -0.56569950
H        0.13569562       4.46442146       1.66258919       0.70862831      -0.54202685      -0.09104947
H        4.35618037       6.34919044      12.93007767      -0.64427682       0.27969488       0.15831817
H        1.58389046       5.26454148      12.79535924       1.15060387       1.20015290       0.76460127
H        5.26671038       6.51000485       1.82554920      -0.79398562       0.74928396      -0.06287986
H        6.54742686       8.26599143       3.38085917      -0.68669507      -0.23757391      -0.36342338
H        6.99059940       7.59891141       1.20326922      -0.34539212       1.09956857      -0.96014485
H        6.87534138       9.41487140       0.63635925      -0.00735061      -1.17367251      -0.30505528
H       12.32843040       5.60195840       0.57582920      -0.19743266       0.20167956      -0.28742639
H       11.03841033       7.51136745       0.97113920       0.22950568      -0.51982866      -0.37941197
H       11.30675039       4.63665143       4.13495927      -0.91639587      -0.32872372       0.63599923
H        1.18580036      11.08004149       1.05114922       0.46277175       0.13399906      -0.17449820
H        3.71109045       9.96863146       2.02691917      -0.31389157      -0.21675998      -0.58176852
H        3.89168044       9.48686150       0.21919921       0.19669686       0.72044221       0.59932243
H        4.88836042       9.06303141       3.64816925       0.34511238      -0.61073295      -0.02494663
H        6.20566344       9.94267141       2.98936925       0.07190260      -0.13732932      -0.44856082
H        5.05020045      10.67364145       1.16194922      -0.43791470      -0.69030951      -0.54382533
H       12.50314526      11.33669151       1.06922927       0.40587407       1.12477068       0.10006243
H        8.92057035      11.69859141       0.15597078      -0.83593959      -0.26241358       1.77189024
H       12.32593520      11.51078142       3.51899926       0.48785879      -0.54667552       0.22316112
H        9.82809043      11.78672144       4.72197919       0.13061575      -0.20175246       1.03086431
H        1.61274044       1.12993150       7.59802417      -0.84835224      -0.41659491      -0.50201506
H        5.33861044       2.11354142       3.45834927      -0.31033714      -0.12689265       1.27891772
H        4.53961041       0.77650149       4.33251918       0.00929043       0.37988283       0.41280401
H        4.20565034       2.61687139       5.93366919      -3.44101983       0.39539936       0.77083096
H        5.67576435       1.88152142       6.60212305      -0.24405917       0.45814353      -0.50394239
H        7.62494035       2.92691144       5.66749821       0.67845117      -0.53141603      -0.01215964
H        6.28549134       3.74896142       7.67725924       0.53368491      -0.35414533      -0.39103596
H        4.78208035       4.49040146       7.33988927      -0.34979174      -0.05319288      -0.48242757
H        8.81258034       0.61612148       5.43021922      -0.64838609       0.47177658       0.29132730
H        9.01129041       1.24742160       7.16239015      -0.77077251       0.02575749       0.15310179
H       11.45501035       1.33956151       6.66452499      -0.19796406       0.17381075      -0.37750436
H       11.06179044       1.11683158       4.96562916       0.02112366       0.23711503      -0.37871445
H       10.83794040       3.34669149       6.35144327       1.87892271       1.32540063       1.66408909
H        1.68468562       5.54874145       4.53431920       0.26041561      -0.32656396       0.00821981
H        3.27275037       7.82487147       7.88621916       0.50264419       0.32668339      -0.30111712
H        5.02595039       4.24582150       3.51195916       0.41974196       0.21471197       2.31213400
H        4.05093046       5.06655150       4.77895921       0.91114792      -1.06982004       0.90614362
H        5.62384539       5.65961540       4.45407919       0.17978195      -0.89823527       0.46754041
H        7.80071035       4.59813143       5.39265920       0.86480136       2.44032723       0.80908105
H        6.23059539       5.36679151       6.90749925       0.28493562       0.42573734      -0.01690944
H       12.45935037       5.88493047       4.85060921      -0.53674682      -0.55270934      -0.33207078
H       12.32493037       6.46769111       8.59427916      -0.33915325       0.14999481       0.19148051
H        9.94305042       6.17144552       9.23151920      -0.15370321       0.55263306      -0.28133981
H       10.45114045       7.02522945       5.95312715       0.14544446      -0.06981371      -0.29946696
H        1.96922039       8.93935150       4.85994927      -0.05407391      -0.34259480      -0.16659640
H        0.77892036      11.99633150       4.51534927      -0.49291288      -0.11798845      -0.32491655
H        1.65323047      11.21674152       7.74888921      -0.78955829       1.28793069      -0.76357679
H        5.16485035      10.71125143       6.32931026      -0.52972024       0.47366584      -0.28571292
H        7.52456045      12.45083147       7.65172922       0.70302166      -0.34771249      -1.54943506
H        7.67097041      12.27675147       5.74417316      -0.08796355      -0.36485064       1.05201493
H        8.12964045      10.90051140       6.88699417      -0.16215542       0.10501505      -0.14416831
H        6.24680139      10.25376152       8.14596922       0.70687396       1.08913840       0.43304667
H       10.02665045      11.16230143       8.36736928       0.45665154       0.56622682      -0.33133448
H       10.98404040      12.78820149       8.22695928       0.35145158      -0.61324637      -0.20568490
H       10.28981035      10.57963142       6.03850520      -0.50713054      -0.40418236       0.22126866
H       11.32591043      11.95283149       5.75070427      -0.89727575       0.03517232       0.13636716
H        9.33642038      12.75703141       8.81118922       0.23283815      -0.28769915      -0.35990050
H        0.67408035       1.35336152       9.72282927       0.79400400      -0.15270194      -0.56969610
H        2.15666040       1.51473148      10.68827926       0.26058274      -0.32791245       0.12934001
H        0.18505037       2.19005150      12.13597920      -1.01268612      -0.35551529      -0.08207981
H        6.81953839       0.72508146      11.44599925      -0.93039155       0.15081985      -0.75959490
H       11.50047523       2.33863149      10.14151918       0.28090123       0.46796501       0.17318442
H        9.01011037       3.23283143       0.07618072       0.19658144      -0.39438503      -0.16411597
H        8.79965040       1.48553140      10.30149917      -0.20241997       0.36627430      -0.28266233
H        1.02458037       4.69136143       9.10587921      -0.32173685      -0.27928195      -0.23451960
H        2.57198039       8.36994141       9.25261920      -0.67040664       0.69073554       0.93288778
H        5.96479036       8.04710148      12.89936770       0.43669325       0.46589940       0.44156573
H        5.53147039       6.44240949      10.74656920      -0.01665160       0.41561930       0.01371234
H       12.74128515       4.91348152      10.28089921      -0.23036461      -0.07762780      -0.12876684
H       10.34621043       5.33768140      12.37269925       0.20697308       0.02433927      -1.01953300
H        9.20399045       7.75108141       9.59848917      -0.19690606       0.41229568       0.06974751
H       12.61025041       8.93213144      10.91963921       1.16982752       0.29543222       0.69796749
H        1.80648045      11.56058143      11.92127763      -0.69308002       0.68389514       0.80901385
H        4.00765045      10.10454143      10.59399925      -0.12322069      -0.01258168      -0.05465193
H        6.13242941       8.58965141       8.74691922       0.51292110       0.10640273      -0.35299719
H        6.93515434      12.75543134      12.77561923       0.54172118      -0.66978166      -0.62285110
H       10.65675046      11.78780149      11.69207926       0.39331346      -0.12165269      -0.12463533
H       12.05532041       9.46040139       9.37599917      -0.24138683       0.28695571       0.16653351
C        2.06121035       0.12091154       2.60383924       0.72086716      -1.34454240      -0.29278292
C        0.40207556       4.11556150       3.99725924      -0.76303047       1.29340323      -0.49205491
C        8.34773038       0.85353145       1.23814075      -0.33576541      -0.66447353       0.95571103
C       11.08490040       4.03414143       1.26136924      -0.30052993      -0.28121201      -1.33854728
C        3.66276036       6.86903649       0.45846923      -0.02454764      -0.43560351      -1.04210489
C        4.45317034       7.28764043       1.65144921       1.59055773      -0.23861720       2.32901332
C        6.36038435       8.41133152       0.69817919       1.45378840      -0.14238398      -0.14976954
C       12.13359037       5.98140540       2.72184921       0.26999296      -0.53224402      -0.56233496
C       12.19572035       4.99502142       1.46509926      -0.84789622       1.03567373       1.13677916
C       10.81410042       6.95311449       2.86452925       1.82815281      -0.68965450      -0.99085690
C       12.22317046       5.17432150       4.01663918       1.56661363      -0.17309306       0.50820902
C        0.69746045      12.59728147       2.47306925      -1.40635159       0.73432578      -0.17678346
C        0.49840036      11.92892150       1.13292926       0.32191837      -1.48388830      -0.39636929
C        1.08509041      10.14948152       3.56366923      -0.11948822       0.18401905       2.21049358
C        0.47049037      11.55455148       3.53541922       0.45037093       0.14819334       2.23771379
C        0.67875043      12.88918147       0.02482927      -0.25027650       0.13602769      -2.69797892
C        5.75788243       8.93305151       2.98059921      -0.02567780       0.94661453       0.89544409
C        4.38878041       9.76693149       1.17757919       0.29803881       0.39679134       0.59165056
C        7.94306041      12.59977134       1.63752084       0.85837354      -0.04374049       0.42742858
C        2.47988046       2.40321142       8.73352923       0.06416147       0.22256100       1.68457986
C        5.34859035       1.53002150       4.44694921       0.18318190       0.09223285      -0.63324847
C        5.17049037       2.38858145       5.74406417       3.61315631      -0.61938077      -2.55675915
C        7.25041036       3.77356145       5.12395920      -1.42881397      -2.83994186      -1.26518923
C       10.64955042       1.49974150       5.90650517       1.54037621      -2.13673147       1.44424112
C        9.42404036       0.69073159       6.33228725       0.42281046       0.06186248      -0.81338661
C        5.79113740       4.37847149       6.93454426      -0.58665043       0.90295047       0.90156736
C        5.10247034       4.67507142       4.60498917      -2.10233090       1.78674215      -3.03726690
C        5.74062439       8.93587141       6.66308632      -0.81828879      -0.89674791      -1.93609965
C       10.08118042       7.27580645       9.17348917       1.61584750      -1.20445044      -0.14859795
C       10.36170042       7.75793140       7.73726924      -1.14036702      -1.18890278       2.45596157
C        3.45749039      10.66331149       7.92887926       2.20427732       0.29019006      -0.52862719
C        8.08930034      11.99330140       6.74944320      -1.52632994      -0.23230752       0.54428166
C        5.69263344       9.34887148       8.08713919       1.13726387      -1.11428728      -0.64331151
C       10.04108036      12.24431149       8.11326928      -0.59440457       0.55078874       1.61447669
C       10.24584039      11.62315147       5.76053816       1.39556638       1.11249350      -1.24663087
C        0.24522036       4.14345151       9.66792923      -0.83276974       0.89081979      -1.48049087
C        1.53784043       2.01566142       9.94787926       0.05820937      -0.56646853      -0.73734565
C        0.86299038       3.18713140      10.60833922      -0.00089171       0.27830401       0.67146559
C        1.81459039       4.02693141      11.44233917       0.41097767       0.66698813      -0.46836761
C        5.74643846       0.98545150       0.23964076      -1.66414462       0.79904663      -0.34920805
C        8.21210039       1.27359145      12.96795926       0.42163392       0.50780717      -0.12473503
C        6.89090944       0.58927149      12.51689915       0.59091322       1.37318503       0.56224184
C       12.16400517       3.52988148       8.70496924       1.68580635      -0.16622590       0.55631038
C        9.38602038       0.78830151      12.09207918      -0.30607526       0.62247211      -1.19875754
C        3.55923046       8.29465142       8.84594925       1.34881076      -0.86716539      -0.46727652
C        4.23143046       7.15064947       9.57875918       0.08294565       2.75568798       0.75890751
C       11.15025041       6.81505749      11.40197917       0.64420214      -0.26692932       2.17426614
C       11.37519035       7.54213946      10.05314926      -1.59696222      -0.19617331      -0.35440355
C        4.38872037       9.58153145       8.71648918      -3.10879795       0.87771169       0.10869449
C       10.77771036       9.90976149      11.12158921      -1.05015187       0.19202900       0.28219382
C       11.72695043       9.02487143      10.33063920      -0.42441318      -0.79804709      -0.55367285
N        5.24514034       8.62167140       1.61743922      -0.79948453      -0.89874688       0.13175936
N        5.79669442       3.82356149       5.56070927       0.65371751      -0.67697498       0.76953184
N        9.48743039      12.45201141       6.76555120       0.73798887      -0.19160916      -0.91574669
Cl       6.78547546       4.61407146       2.03477917       0.49752305       0.56427373      -0.57399181
Cl       2.62261556       7.13861745       4.87639927      -0.14741673      -0.22874308       0.16915567
Cl       0.38684560      12.96208133       7.26355316       0.35444195      -0.35973499       0.16064851
Cl       7.48690515       1.26801149       9.06702918      -0.01909936       0.23452052       0.66013126
Cl       6.31003644       4.55967140      11.03650916       0.16862315       0.00029146       0.53779862
Cl       2.36975045       9.86967141      11.74386761      -0.31905972       0.12724385      -0.07949916
O        2.17232041       1.21457153       3.29834925      -0.30652882       0.64509136      -0.24193172
O        0.23887562       2.95183146       3.57321923      -0.80082329      -0.21599442      -0.16331935
O        0.08564042       0.79428151       0.08834923       1.08532709      -0.44535758       0.05279880
O        5.44054037       2.12002149       0.68431079       0.74211473       0.33089138      -0.61360030
O       11.16092040       2.81913140       1.78483928      -0.55394285       0.53087029       0.31866500
O       10.16167039       4.28268145       0.44857920       0.07067895      -0.12393715       0.58201219
O       12.54279516       0.32111158       2.73701922       1.06849988      -0.01824632      -0.41173538
O        2.68090040       5.90694141       0.82647920      -0.27961668      -1.01504926       0.43760866
O        0.40326558       6.66898151       2.48387922      -0.93845760      -0.08929633      -0.12543320
O       10.41245036       7.50770451       1.73554923      -0.61177068       0.70277389       0.16983523
O       10.25834041       7.15797245       3.92477919      -0.17719991      -0.12897407       0.46536431
O        3.08479043      12.77085150       2.13701920      -0.75959691       0.28282825       0.11341131
O        0.94815043       9.29416147       2.70705917       0.03918275      -0.35458459      -0.75938674
O        7.36568536      12.39034135       2.69385080      -0.68136242       0.16760764       0.46925159
O        8.37657037      11.47646141       1.02704074       1.08414619       1.14293036      -2.42366098
O        2.20740036       1.95531148       7.55018519       0.47359772      -0.01362502      -0.27581705
O        1.57961554       4.52224150       4.31047922       0.79004475       0.38938770       0.48316258
O        6.61091805       0.85846152       4.52493921       0.16352631      -0.06307860      -0.07182850
O       10.23900037       2.81277156       5.87927723      -2.36509298       0.00835756      -2.19333570
O       12.17934523       3.83247145       7.51168323      -0.58578388       0.25304936       0.14243982
O        6.01658935       7.81071145       6.24018423       0.14915178       0.80593706       0.39778378
O       10.46023044       6.69799452       6.88520716      -0.01230493       1.16579093      -0.25370453
O        1.61733037       9.88231143       4.82070926      -0.61180601       1.23585992      -1.67488747
O        2.18883040      10.43396144       7.96032925      -0.91365020      -1.63890416       1.35342261
O        3.93921035      11.61983150       7.30083627       0.50531677      -0.18801659       0.47462834
O        5.33621042       9.91885139       5.75797817       0.93914314      -0.82346535       1.12168328
O       10.41733041       8.95678142       7.57238924       0.26772803       0.47135000      -1.73521775
O        3.47733039       3.12854152       8.92506927      -0.80934544      -0.54152637      -0.59425283
O        3.03181037       3.90622148      11.57053928      -0.05385815      -0.64913382       0.27507553
O       12.72120523       2.80723150      11.47276921       1.35865178      -0.81018730       0.43069232
O        4.99847045      13.17220137       0.50520074       0.22163954      -1.45464526      -0.21104097
O        8.23921046       2.75412143      12.79173922      -1.06616801      -1.03349538       0.51393991
O       11.37230517       2.57592150       9.19037923      -0.56801298       0.04839129      -0.90565842
O        9.64810037       1.49323144      10.96889920      -0.15771108      -1.70989279       1.53806266
O        3.78235036       6.05639350       9.41754928      -1.03434410      -3.72535537      -0.58905669
O        1.16593040       5.07370140      11.93713917      -0.98908590      -0.32990347       0.34785169
O        5.20782042       7.36532847      10.48203920       0.31330124       0.01344329      -0.25689734
O       11.67648035       7.23837840      12.47196916      -0.85200054      -0.27790928      -1.51798096
O       10.44378037       5.65744446      11.39293921       0.29198458       1.03979288       0.49130366
O       12.52403041       6.91093948       9.44344925       0.06296146       0.62773788       0.22810948
O        1.36771045      12.56391152      12.08028761      -0.42548055       0.23575151       1.19232503
O        4.77725036      10.11529152       9.95992928      -0.24573630       0.50572432       0.43885554
O       10.00273045      12.99605136      12.47280922      -0.02673066       0.10311830      -0.05846044
O       11.30583038      11.15519143      11.25551924      -0.21389070      -0.93099360      -0.32568824
O        9.66835044       9.58647144      11.60878924       1.45036257       0.31698196      -0.70892185
197
Lattice="11.94088 0.0 0.0 0.0 13.618682 0.0 0.0 0.0 13.606463" Properties=species:S:1:pos:R:3:forces:R:3 stress="0.002224360781285469 0.0006469290629658901 0.0013693783204154469 0.0006468458948567877 0.005596289768304676 0.00017158072114592174 0.0013698065441150645 0.0001710761513066762 -0.0030106631362474072" pretrained=F config_weight=10.0 head=target_head energy=-1147.15997852 pbc="T T T"
Li       3.03420492       5.59997459       7.69056040      -0.87180069      -0.20361958       0.27622768
Co       1.49529513       8.27721452       9.84956533      -0.91991012       0.14798470       0.06500479
H        1.23572488       3.00045457       0.67032266      -0.70974558       0.37828864       1.46903567
H        6.02988891       2.18118243       2.36993545       0.24429336       0.64479879      -0.08982304
H        4.20153494       1.14718249       1.97296540       0.33552349      -0.19735992       0.69968236
H        0.82773499       2.97434456       3.16596537       0.24815797       0.16393746      -0.09060617
H        3.53491491       3.91818460       1.28067266       0.26510532       0.46747286      -0.27607787
H        5.06942496       0.13911239       0.91861543       0.01115185      -0.26811403      -0.83479613
H        6.72159996       1.16840244       1.06625535       0.30638621       0.31485430      -0.77594514
H        7.72165594       1.50335243       2.52297537       0.15372743      -0.03027203       0.27102183
H        8.76844493       3.22140461       1.30725261      -1.42919381       0.84677776      -0.54173337
H        4.42652488       7.39364654       2.90453542       0.83740825      -0.22828449       1.36910555
H        1.52431493       5.60503461       1.31655263       0.11828927      -0.58393037      -1.74165280
H        1.56026498       6.37124359      13.35812538       0.45596543       1.72788458      -0.48078920
H        5.54494495       5.29412459       3.82980536      -0.31141401       0.97632143      -0.63908927
H        7.51461995       6.68206563       4.65567534       0.64941508       0.28536480      -0.50319350
H        7.25409789       8.41600455       3.09541545       0.26330220       0.34221597      -0.69361166
H       10.31135479       6.34006158       1.28190255      -0.31413430      -0.17771889      -0.52002572
H        0.28293497       5.21238458       4.13101544       0.58833919       0.16113074       0.07111997
H        1.60515504       9.54348462       2.95232540      -0.27476532       0.28346369      -0.33313023
H        2.19828506      12.54534450       4.36912541       1.09270302      -0.25513044      -0.56926336
H        4.14299490      11.67592456       2.51242532      -0.04183928       1.08825908      -0.43958133
H        1.83567492      13.29789463       2.56869540       0.06990597       0.20660812       0.43701798
H        1.18600509      10.78463452       0.69056540       0.30607907       0.22111525       0.18396927
H        3.22461490      12.45189460       1.19097546       0.11228739       0.10954929      -0.12410050
H       11.91319493       9.40647455       0.79921546       0.78727363       1.87871087       0.16316528
H       10.54440483      10.47305678       4.53857540       0.27323215      -0.25694612      -0.65521781
H        6.53415597      11.58667453       2.87460542       0.07190980       1.36008314      -0.37923686
H        7.78357895      12.85454456       3.00676540       0.78661169      -0.11382424       0.04198539
H        7.06712198      12.47352461       1.35594538       0.07367392       0.13453685       0.94609433
H       10.12141492      12.57313451       1.49587533       0.10779659       0.42725598      -0.76437893
H        3.38772493       2.98797454       4.47923544      -0.29585789      -0.76111199       1.55723022
H        0.04373491       1.93775462       5.15702533       0.10517465      -0.13501692       0.00247896
H        5.25140492       1.21770248       4.27259545      -0.66869109       0.19538573       0.51934977
H        1.06347494       0.29354457       7.15199537       0.84308010      -0.40315267       0.15909409
H        4.70755492       1.18911455       7.37913935      -0.10572099       0.18493113      -0.23509370
H        4.15259489       2.41983458       8.53798546       0.15079829      -0.14467057       0.00874788
H        7.13024290       3.50327456       8.76185545      -0.00302724      -0.58223444      -0.63695527
H        6.68317290       0.32147240       4.75749536      -0.19272076      -0.34728743      -0.26768224
H        9.74614483       3.39103456       6.58148238       0.15312988      -0.25654980      -0.10637114
H        8.75173474       3.24702462       5.13646542       0.34704500       1.23938206      -0.27799623
H        0.26743487       5.09395461       8.13498543      -0.04416352      -0.16924772       0.23656003
H        3.88694494       6.61298650       5.60124545       0.42469455       1.38297906      -0.33275168
H        3.61079490       8.34090460       5.21042539      -0.50103927       0.59986604       0.03776518
H       10.73243476       5.84346655       4.71417537      -0.17158610      -0.36937809       0.29935153
H        6.96745695       7.24510254       6.29779144      -0.27815547      -1.01397805      -1.62059256
H        8.75713477       7.82179462       8.23508532      -0.08830502      -0.09634939       0.95214009
H       11.09367491       8.67566461       7.14798337      -0.22787228       0.20077912      -0.18297623
H        4.20024497      12.51843671       7.51118136       0.28632282       0.38741843       0.17634855
H        1.71731489      12.69262674       8.28467544      -0.42561227      -0.56548192      -0.07509261
H        5.38473488       9.61349459       6.87620394      -0.21685597      -0.51441308      -0.11631745
H        5.12855488      13.01085462       4.45431534      -0.12924282       0.02444766       0.51487226
H        7.56191287       9.07411456       6.88138691      -0.76523425       0.33964989      -0.05443774
H       11.28253497      10.10610452       8.09720546       1.02139580       0.28249889       0.82427619
H        8.02967487      11.48010453       7.83690539      -0.69011229       0.18289551       0.13789027
H        8.90892496      13.56232463       6.09231439       0.08549855       0.75717413       0.26258056
H        0.16619508       0.51276245      12.53749811      -0.24596283       0.08168242       0.83463153
H        1.31346490       1.18809451       9.74418546       0.02613026      -0.31464047      -0.05499997
H        2.24657493       3.65304452      11.03244535      -0.16278267      -0.29373592      -0.47457336
H        4.57985497       0.35459453      11.25213544      -0.19183377      -0.51678134       0.16178479
H        5.79293493       3.36366455       9.96324543      -0.32801374      -0.07345221      -0.00358588
H        0.48588491       4.15781457      11.32789541       1.43650567      -0.00104526       0.49447989
H        8.79022497       2.08604463       9.74905535       0.03221754       0.15896181       0.54831595
H        7.47659290       1.64328453      10.92453535       0.54995784      -0.33117270       0.21412886
H        6.58112698       3.09743456      12.32474542      -1.47810910      -1.03354670       0.54235257
H        9.10611498       2.33351461      11.58097534      -0.64466200      -0.54902526      -0.94752952
H        9.19138492       3.86749464      12.75057545       0.37354934      -0.60785365       0.51860387
H        9.73774490       4.81710451      11.05685535      -1.06990691      -0.77832517      -0.47672680
H        8.43041498       5.26866460      13.48046544      -0.50586007      -1.30483846      -0.74842676
H        6.55853698       4.94567454       9.44942539      -0.25498761      -0.24109366       0.57186924
H        6.54735088       4.97124456      12.04331533       0.30894355      -1.85164967      -0.04973836
H        5.16060492       8.43797462      13.33443544       0.22274227       0.08007120       0.27196432
H        3.84476498       8.33287462      11.88050543      -0.07923558       0.23205884      -0.85538718
H        5.86704290       7.42652354      11.46288539      -0.08393372      -1.68117748       0.75648132
H        6.12734799       8.25516451       9.99396542       0.20575782      -0.18381520      -1.81610699
H        9.04485492       8.58429456       0.59552535      -0.53977295      -0.55882359       0.19835140
H        9.08374494       4.65438454       9.32832542      -0.15277249       0.00004901       0.69686762
H        8.30483490       5.74756460      10.57219546       0.30128018      -0.77835628      -0.33108308
H        7.37471498       8.46932455      11.29739543       0.26468514      -0.42281732      -0.07746281
H        6.78859499       9.18549455      13.19025537      -0.13596181       0.45943346       0.63750547
H        5.92362893      10.79322451       9.94472540      -0.26364509      -0.38471985      -0.71052436