170
Lattice="12.645840 0.000000 0.000000 0.000000 12.564351 0.000000 0.000000 0.000000 12.690561" Properties=species:S:1:pos:R:3:REF_forces:R:3 REF_energy=-826.14889019 REF_stress="-0.0007521924701399314 -0.000464638130612772 0.003487072809245177 -0.000465080897028653 0.0015961656641344996 0.002182744420683036 0.0034873711221738483 0.002182391862798551 0.001989068232944721" pbc="T T T"
Li	7.123364380570988	4.636177675009197	4.50014413958384	0.58621582	0.59234995	0.79943434
Co	8.996254353930338	6.563557715858114	8.777394177567201	1.69387237	-0.15885923	-0.36433206
H	2.699144360045342	2.4313677100193067	1.053697186136386	0.32971037	-0.47306471	-0.20947469
H	1.5308643936670479	3.447877635301598	0.63453314622456	0.21979544	-0.4155213	0.30719068
H	3.6125144196127574	0.568226307822128	0.41005615090065994	0.62011814	0.016286	1.04652641
H	3.508624419611828	0.4008263034020245	2.77923421565614	-0.31089126	-0.12897939	0.73907685
H	0.1730014113839	1.5994263470593262	1.635604224008128	-0.77104526	0.25912533	-0.19858308
H	2.660564431983502	3.834437620319752	2.4849041825013782	-0.72869638	-0.42370245	-0.95062744
H	4.8160444115167556	0.942426363486746	1.5742042422201918	1.4234733	0.33376452	-0.70461867
H	6.211224381840918	3.2922976700575206	2.73894422132342	-0.34956998	0.34372767	0.35992844
H	6.878224396672794	1.4831276955194022	1.092724215798578	-0.17583495	0.17192375	-0.134017
H	6.803314361907931	1.211192664797839	2.649154184627544	0.4504378	-0.14053945	0.38307177
H	11.245224141896205	1.8709262742936386	2.061774215246438	1.23361884	-0.76314649	-0.38869578
H	9.633334438253812	4.175747722168447	3.558294201101442	0.11514244	-0.69459846	-0.14331368
H	9.845394422735982	2.1263776299050825	4.031674222898278	-0.90921777	-1.19122601	0.32902666
H	11.379234382507969	2.4614276693371546	4.089264244342706	-1.20074376	0.35823973	-0.42123938
H	2.12608434554296	7.201387640358432	2.722654235993538	-0.36511104	0.40128051	-0.72222251
H	2.927554403721728	7.374677687047902	3.9943142253815904	1.04444682	0.83944268	0.41890741
H	2.828374346754308	5.323667695646335	3.089534178182276	-0.0300847	-0.52344976	0.22369393
H	1.00624338330978	8.192727651868296	0.323031514439458	-0.59373647	0.62074342	0.0821095
H	5.053504450446011	4.315007725800497	3.180874240047548	-0.15284919	-0.22340376	0.01382855
H	6.022864345103121	6.03759763469036	0.896202750560282	0.72570524	-0.77570327	-0.7149369
H	6.242244373953522	4.611547651414278	1.383102788850222	0.5412772	0.17496324	-0.56007506
H	6.563414434647664	8.05588766794977	1.48090285409055	-1.11092666	-0.50243829	-0.51443614
H	5.116074421817238	7.836527662878228	0.54810280875372	0.80695174	0.29600274	0.94849761
H	8.323104414286925	5.897497704170563	0.4368027781073	-0.43846642	-0.75251008	-0.14651785
H	4.947494375402611	8.212117712732697	3.132834246773462	-0.44959301	0.43736176	0.21130508
H	8.708504339284442	7.4789876858166835	1.218309249979294	-0.13883342	1.42917414	-0.06850737
H	9.014354344436077	5.604267731276426	1.795702762783512	0.24356333	-0.57808326	-0.54465164
H	10.181034359162874	8.068107630429267	4.17553417311745	-0.31544133	1.09759777	-0.65115354
H	9.477554384426348	5.6805476673314645	3.8340342115781856	-0.99804733	-0.64571473	-0.17550733
H	0.28779465446039	10.298477632301003	1.2296751705803621	0.17692852	-0.08662359	0.22578279
H	0.130400359182456	11.050177644868803	3.757884244086258	-0.08789647	-0.54549862	-0.60162191
H	4.742894424735257	11.807077665529826	4.188994163255132	-0.0922918	-0.26775058	0.10408862
H	4.728914448836358	9.372517730763025	4.2248641619578455	0.07414317	0.12731814	0.0757238
H	8.154934345998615	8.808027684101848	0.46639018748332994	0.71006567	-0.16013656	-0.30196675
H	12.352676227794122	11.77547769366701	2.5046942246653803	-0.15143824	2.65786468	-1.30403604
H	9.518494405570062	9.323079018496992	2.5913042604856438	-0.30383938	-0.12698017	0.25809263
H	10.592934400211679	10.303119029333205	3.0894841773703603	0.89336307	0.15311222	0.31130348
H	2.6232543991543777	3.6227877294541373	4.502094171248564	0.32134502	0.37761265	-0.33788679
H	1.8106743384193198	2.5452977300427286	5.3549741371127535	0.0921808	0.19721642	0.02219649
H	4.005134360385686	2.7477576774004127	6.403314256565358	-0.91745648	0.39218645	-0.33464337
H	3.437394450687164	0.943926295750909	4.327684232571172	-0.03711754	0.18713131	-0.23613528
H	0.39375149051823194	0.58842626677455	5.683414241915278	0.22850754	0.37192825	-0.41928849
H	0.364401128634422	1.859926310330227	6.527724144760433	-0.16569186	0.19619312	0.14752586
H	6.216184459585672	2.782617721508015	6.073714234450874	1.4911273	0.62867897	0.71637698
H	8.10179437736625	1.7172263129420617	5.02371418956715	-0.63977826	0.6447755	0.62437724
H	7.6828743777276705	3.2994876201175583	6.7379441826907325	-0.79313214	-0.12287646	-0.22911346
H	5.215104372666231	0.776226380264081	7.579064186022384	-0.34574299	-0.83606824	-0.31865633
H	4.749954344178802	3.212957686231189	7.735134232986952	-0.22287268	-0.00068798	-0.01338495
H	8.240404415746866	0.21132635881835202	4.647954153944377	0.11665372	-0.21028474	-0.1229219
H	1.519704440043548	4.416767663819282	6.470944161850168	-0.25463403	0.01461825	-0.28534316
H	0.706094628573576	7.187997685481223	5.189404189695374	1.92212236	0.2295619	-1.47701012
H	0.130594599281784	7.576427622910797	6.59653414534983	0.04298058	0.42240045	0.48851922
H	0.141310431011508	5.314047674391694	6.591364137541084	1.84271092	-1.39803769	0.94571812
H	5.6006244331418475	7.062307683881229	4.6037028008706455	0.5283968	-1.00623513	0.59974671
H	6.32558437844586	7.004727648870935	5.89340280400564	0.12743711	-0.26361059	0.36621049
H	11.008534361069168	7.121957695776435	4.997554247014032	0.92711869	-0.33376247	0.09802545
H	9.594414337101352	7.34004769621352	6.1464341970076095	-0.29503814	0.2026915	-0.25214696
H	0.823026409618644	10.264838968788135	8.104584140764805	-0.12877152	0.3650993	-0.06969821
H	2.83944438845683	10.602077718225376	8.107274159064762	0.98637043	0.34565745	0.12452647
H	2.194014382571814	11.67457765985462	4.652254223769152	0.57072915	0.30337926	-0.45834003
H	1.243151431331766	11.894996085883886	8.044814261588698	-0.37628847	-0.52237111	0.28719031
H	1.426634347033896	10.992577632539863	5.840364252407322	-0.03269445	-0.22019348	1.08801433
H	7.067894415955472	10.70927764344817	4.629454234252298	-0.68787215	0.25490165	-0.54315529
H	6.399314429898984	12.539677728105898	8.106954230011867	-0.42895816	-0.74787153	-0.65240314
H	4.405464343226276	11.232777624621596	8.221244156924127	0.35473721	1.25385562	-0.74980501
H	5.10475437186187	11.276677719525523	5.60834424119849	0.31757588	-0.09781916	-0.32297142
H	6.3377543552941855	9.317219005027352	7.383414181635427	-1.14002152	-1.22805077	-0.28636112
H	4.768154363277359	9.26270906926943	7.576444219621354	-0.94419525	0.68415442	0.42537069
H	8.14282443688934	10.54257772468529	7.734994256094709	0.01984565	0.48069187	0.37153842
H	8.038374352643668	10.260577643384268	6.213174240127052	0.16499124	0.46813299	-0.73096148
H	8.644944451573672	10.616577733544357	4.230984185192996	0.15028077	-0.5286404	-0.30484527
H	8.893384367367675	8.415527650695955	7.143004186473825	-0.98001428	3.11065467	-0.30254992
H	3.5862944089130395	4.090577628028689	9.36150416999237	0.41584009	-0.21703226	0.96407131
H	1.5822946447584538	3.0179676226816206	9.456624242476247	0.30449176	1.01801992	0.20438327
H	5.217454349076266	3.9018276495770983	9.912994216489365	0.47255637	-1.03983834	1.43441336
H	7.460614385321217	4.034017692704502	10.4811156244179	0.43696843	0.22626159	-0.30643052
H	6.974924351538637	1.9787476323342041	11.563564165745284	0.47230949	-0.36472957	0.94978015
H	8.3267543830284	1.619457692416631	12.191664212584955	1.01657638	0.27804871	-0.04777922
H	10.208214189103414	0.7866336837743131	10.50836416332791	0.0486775	-0.49061202	-0.30153114
H	10.793734402477531	1.6125263167073767	12.401811660504046	-0.46488798	0.19971587	-0.17418561
H	11.10755419524632	0.293354234328989	9.358614148444747	0.52603276	-0.02096518	-0.13789576
H	10.615134424897375	2.8277263813682985	11.446475589327482	-0.94690156	-0.34303214	0.22421731
H	1.3315644409182719	4.452477686295711	11.293264218223877	0.07816712	0.41785404	-0.00191281
H	1.519494645561266	4.4544476509438775	8.77966413828482	0.12818944	-0.52075181	0.86023128
H	1.2260543823805639	5.689937635312887	12.336564154310858	0.13409033	0.58761248	0.04536088
H	2.364314389657638	7.726247712565495	12.55638663243008	-0.7191359	-0.55660725	0.39509655
H	4.279694384744988	7.886057717978577	11.067964239993188	0.21660578	-0.80368046	-0.65175649
H	6.935304429611646	6.866347652407441	9.915064173959319	-0.64275742	-0.66220461	0.19547407
H	5.147254383803312	5.878987650474716	9.393044149145403	-0.61459266	-0.75979648	-0.02923128
H	5.283014429268202	7.262687728516434	8.686614150176512	-0.06944807	0.86373769	-1.03563326
H	6.608194365046648	4.39942772816466	11.799145656105411	0.15322521	-0.2293738	0.08701595
H	7.925884422828349	7.498867630740221	10.901864207826131	0.71516686	-0.01342721	-0.59769852
H	10.905434346680543	6.609817647232599	10.585464146246242	-0.37800087	-0.38421628	0.15791289
H	11.244734368520751	7.77432771587654	9.652854205519183	1.41952327	0.92893699	-1.15664136
H	11.841034401573982	4.7371876468959	11.80756419382133	-0.0428795	0.21899947	-0.0603378
H	10.39263441445152	5.1180876429179065	12.284364195009852	-0.08531023	-0.05284073	0.0260152
H	2.0100443491205877	11.601977696666482	12.408611644019008	-0.19446399	0.33006383	-0.49915535
H	3.7556343438412476	11.292077719331704	11.24192556732509	1.00676191	0.06375328	-0.17919419
H	1.98892440561221	12.366877691119077	11.036665635317982	-1.00500609	0.48094361	-1.2098065
H	4.24692446132086	10.605577643937432	9.871065616868675	0.69950658	0.48802147	1.44413381
H	4.445124352465434	9.251537727553606	11.677564240235167	-0.25185073	0.44773913	0.0085257
H	6.2619844034229235	11.292277618161682	11.323364199374854	-0.9399108	-0.22877042	-0.21854018
H	7.566504451344915	11.892040070941771	9.608645619637372	-0.07077273	-0.37869045	0.60565607
H	7.969534447441203	10.03568769035305	11.37336424985717	0.38459105	0.30991456	-0.04732964
H	7.450174359357532	12.277577694690574	11.701864254109502	-0.32581801	-0.77454131	-0.05758689
H	12.475734412388697	10.083727613383289	12.484201577036353	-1.15736323	0.15419758	-1.18356289
H	11.419534397699405	9.805747621940215	10.277664224315906	-0.29483811	0.33951948	0.85642418
H	10.769734368954703	11.148877660759808	10.789664162565222	0.16974288	-0.90705559	0.16520544
H	9.416414404619706	9.159347679027574	11.33436425109076	-1.06302937	0.70197188	-0.07224532
H	8.79315445278006	12.4415659751451	8.91428561361602	1.64747264	0.58009237	0.3871362
Cl	0.72207239424408	1.0284757109339775	9.159335658742302	0.06433027	-0.01117421	-0.10003482
Cl	8.769344359771027	4.307667631741827	8.757004252565823	0.04349757	-0.27463844	-0.67779506
Cl	12.541270212568218	8.55495765000177	8.560524158557689	0.46834827	0.32957866	-0.24312227
O	1.8072244268634818	2.7249176969423288	1.29030521600816	-0.73303433	1.0311697	-0.04453201
O	3.8835343675784477	0.8405263329504086	1.345312200585232	-2.05338379	-0.22021931	-0.76385217
O	3.4645943875129834	0.13562626757811552	3.784314241785968	-0.03253883	0.3150089	-0.52894385
O	6.340334359530181	1.6598777132836353	1.922844167414324	-0.00377651	0.03655027	0.08343982
O	6.032424347075126	4.162787719394436	3.2145042277575477	-0.55056509	-0.95574892	-1.22115313
O	11.881474153295207	1.273026360957675	1.531964216222748	-0.43505957	0.46390849	0.36667948
O	10.517034449107273	2.67246768658824	3.60643419599936	2.37456275	0.56742683	0.06223828
O	3.1956544272775975	4.388047692572911	3.06996419035295	0.75143064	0.94412742	0.75646126
O	1.507144339037392	7.362557736805152	0.263858853082836	1.66064669	0.00680326	-0.39112545
O	2.169184402582912	6.902647696823266	3.63819422948707	-0.73643526	-0.99154801	0.03489628
O	6.471624353542567	5.148767652974876	0.5729028307472139	-1.23007524	1.24558075	1.26966411
O	5.632954407799334	7.61854772615897	1.419402743773168	0.26127782	0.27470065	-0.41293064
O	8.935044442629602	4.867467657331077	3.509144164421698	0.79601666	1.77560241	0.5525904
O	9.209994338229938	5.792447665107267	0.8277027803858881	0.10627839	0.72979788	0.81447637
O	0.6237946179463899	10.081517669624338	0.328638077560364	0.9649269	-0.01053108	0.88318556
O	8.352484367435867	8.431107697656982	1.368974259937988	-0.15660132	-0.98561801	0.38539042
O	4.506474379671154	8.43577761576675	4.004634189912069	0.41629441	-0.76999321	-0.71100463
O	12.245975184064049	10.936877727065584	2.893884173795318	0.22940179	-1.78951143	1.59952741
O	9.933164391368656	9.661659012440847	3.4322441847510303	-0.83010057	-0.16903636	-0.66844732
O	2.512634409670286	3.2534576163727795	5.406504161677454	0.10977667	-0.64905635	0.4398088
O	0.432820433205138	1.5735263188299495	5.59215425749244	-0.29539995	-0.60608142	0.33229741
O	7.1829844568920675	3.11078764778434	5.89753421626941	-0.56995375	-0.19367399	-0.14490069
O	4.693254445184338	2.504327641873622	7.043464245265558	1.11881319	-0.25252665	0.27796566
O	8.432544420459278	1.1299263146225256	4.330824258178374	0.11314645	-0.34039308	-0.54492798
O	0.750925395248556	4.603647689859452	7.058304207049876	-1.37220198	1.33765303	-0.42380318
O	6.164054387719734	6.396547708903916	5.14520283743356	-0.60532624	1.16863573	-0.7476836
O	12.612834411038795	7.10698764807345	5.756414158256498	-2.18827892	-0.74324323	0.90941682
O	9.198714375586736	7.536297712916465	7.039174200984289	0.76828434	-3.47888379	0.82753312
O	10.126174429859311	7.1839376409859845	4.571054174273708	-0.11077292	-0.91272531	0.58947404
O	1.3787444252528978	10.976098983170283	7.658294152766092	0.42760026	0.15060471	-0.2218459
O	1.3957243737275518	11.185077692938888	4.893484156102806	-0.89915803	-0.04104843	-0.6048206
O	3.8415243819292555	10.458077687403026	8.367144241793964	-1.38018812	-1.24101636	0.58623104
O	5.288574425653068	11.101777676854063	4.652884183237048	-0.08242506	-0.24208858	0.54077202
O	5.507414350685609	8.70653901042871	7.303414151625966	2.38551731	-0.16498704	-0.22326049
O	5.515294352840184	12.380077673003873	7.632924197660124	0.49332809	1.702181	0.4530772
O	7.967484430351225	11.030477621456598	4.813844157320264	0.64434885	0.47190347	0.37568395
O	8.0397444029276	9.817657621871906	7.089814236478006	-0.16504582	-0.57772143	1.03112211
O	1.90309456172165	3.984557621041173	9.606404212682904	-0.66315591	-0.66982146	-1.302459
O	7.415014372211203	1.2861576158405872	12.1883641589985	-0.98754937	0.58494379	-0.73411267
O	6.779774384037028	3.710227699308787	11.09620556152152	-0.85936703	-0.51279444	-0.09097317
O	10.323834217186027	0.0033206324182915	9.866694226088832	-0.29539599	0.76909937	0.51409242
O	10.13277442010933	1.9908263715045267	11.749285582515338	1.37539758	0.21425797	0.25035513
O	1.0169503629516439	4.745427725441771	12.191164204465796	-0.27166004	-1.09860568	-0.11743117
O	4.12937442516797	8.338407662109654	11.908964190613997	0.11533967	0.1866016	0.57107218
O	5.333074377158879	6.830617652612364	9.545414136028189	0.53963991	0.4741453	0.92786568
O	7.86865441022947	6.700667707687152	10.274214168293703	-1.5535694	1.39296006	1.30519596
O	4.574174388874045	4.297367627792124	9.334264260664112	-0.75328717	0.96420359	-2.24827632
O	10.495434343061689	7.347417693428403	10.070284207121315	-1.65998786	-1.50122775	0.84890318
O	10.905834461051816	4.8493176979449215	11.484764155221807	0.41439086	-0.11669781	0.14307898
O	2.473084419237388	12.286577665206092	11.85265566205974	0.77931161	-0.83720952	1.83729127
O	4.6126644050149075	10.914177713481537	10.847785664721082	-1.52833704	-0.76450725	-0.98771129
O	7.2338443806084936	11.322477669997083	11.407264165808149	0.55035339	1.51366359	-0.00150854
O	8.409534429734393	9.1381076430704	11.422364157195553	0.74212523	-1.64932712	0.32234774
O	7.898704339971015	12.159316994043834	8.730885554337254	-1.35668517	-0.52796558	-0.64889989
O	11.001434354313457	10.2039276216609	11.104464198163798	0.43629635	0.41391453	-1.00394589
170
Lattice="12.609978 0.000000 0.000000 0.000000 12.528720 0.000000 0.000000 0.000000 12.654572" Properties=species:S:1:pos:R:3:REF_forces:R:3 REF_energy=-825.90614747 REF_stress="0.002740830706796443 -0.0010828426326266862 -0.0009891295063391304 -0.0010831563059093168 0.00506188456048653 0.002057952311371039 -0.0009889672021358208 0.0020585504851226453 0.009110819313236106" pbc="T T T"
Li	7.044273376532744	4.777862202400814	4.125389739399927	-0.86030569	0.26368691	0.44330008
Co	9.04122336436113	6.32282218095266	8.792539695733462	-0.35199077	0.40241377	-0.94002791
H	1.9387934012209904	2.217022211739216	1.6228097189803299	0.88265314	-0.40985284	0.15034373
H	1.234166384570995	3.409642125225807	0.9022236890099622	0.16114387	0.67194552	-0.23791971
H	3.132923358825789	0.663341867976081	0.7270687143552994	-0.0907235	-0.85323779	-0.61767329
H	3.2785933167015613	0.20974180359809041	3.341219671142522	-0.12818104	-0.15888226	0.00951052
H	1.462303326743383	3.7828421337789013	3.1831097728763256	0.09101514	-0.05086862	0.37316692
H	4.273283362762212	1.5142418114723446	1.3890697683471787	-0.94255247	-0.23088322	0.5160155
H	5.896273365413281	3.7639221373469587	2.3094297375296957	-0.43039573	-0.76736836	-0.30898625
H	6.494633325874555	2.089602119090237	0.7227037726732223	-0.45861615	0.16059189	1.25070395
H	6.558463393644236	1.567382128177633	2.3039596720338134	-0.56479756	0.71616503	-0.48915701
H	12.180959011434389	1.8703418707958357	1.3747897160434073	0.73376357	0.42807028	0.28561854
H	10.981581033314566	1.3235417834678047	2.1838196919181274	-1.02819421	0.27306073	1.45252884
H	9.301883330492682	3.605732134003516	3.5270096750466973	-0.63645531	0.59402562	-0.08228032
H	9.011203294873654	1.5190421906667841	3.214219773836574	-1.84479488	-0.84192746	-0.45704101
H	3.2642732999370203	7.445142191795587	0.0748016840530688	-0.51186094	-0.38242634	-0.09526059
H	1.8835033147420857	7.850442159993379	0.7071497845588959	-0.56830421	0.03425963	-0.09811928
H	3.3568433983588646	6.568492219979481	2.33076977581448	-0.00778082	0.33965219	0.33164311
H	4.121613325301984	7.22417214903775	3.5957197010041577	0.08639702	-0.07753732	-0.20291132
H	2.3492733949858704	4.837232174715789	3.894479730808242	1.19747302	0.82860688	-0.13672545
H	4.962403385447708	5.05728210825259	2.7624397679051764	-0.27686285	0.17813049	0.30713338
H	6.310653373078124	5.3586522068353215	1.129897290692445	-0.29668967	0.42569912	-0.29827605
H	8.319413361611856	5.889142155463353	0.689897299727646	-0.18166757	0.25371446	-0.32055137
H	9.154003347926961	5.141742221187625	1.747997228417125	0.14927896	0.32350801	-0.01806348
H	10.170143344337632	6.9816522061635	1.5852896708811282	0.634893	1.66726141	0.10457125
H	10.4429033406614	7.223012114822396	3.7965397937224012	-0.05260488	-0.09646402	-0.3854643
H	11.335103397150815	8.277282130618522	1.5808696818088066	0.11403887	-0.18959398	-0.45810364
H	1.7579033973577174	11.405062126538626	0.3747458022031709	0.39494097	-0.1495783	-0.29638912
H	1.3438834045559238	11.932562221347105	2.33277970155989	-0.26200229	0.60691487	0.30887994
H	0.3992257147763319	9.847982114513945	1.1870777356724882	-1.13633686	-1.39700924	-0.44911781
H	4.211263331190155	10.740862166507144	0.1218477146705125	-1.45427477	0.4472057	-0.14459544
H	7.101063293758098	12.252562151198937	3.015389739184962	-0.10285082	-0.00946939	-0.01155781
H	5.517223362741396	9.231292189558651	3.519109678545126	0.01144703	0.20556067	0.51169189
H	5.767833302753794	10.568762151417317	1.8370973139040467	1.22776787	-0.48562365	0.23410808
H	7.286903344363581	10.129412128255465	2.663997317746553	-1.13805971	0.43853452	-0.46151631
H	9.200283353146807	9.111042158267328	2.5070797332984798	-0.45279722	1.47413276	1.94481019
H	12.484268065809728	12.237762224447515	1.4934197525719728	1.16007591	-0.03000819	1.06806933
H	12.325803394070796	11.061002543313874	3.5205697631167148	-0.40237575	-0.10701177	0.40268724
H	9.583543322970275	10.188112189894396	3.6677797719316008	-0.14889846	-0.16498639	-0.58035692
H	2.335033325479884	0.6008418454610628	4.533249773751145	0.4501693	-0.61989746	-0.51013517
H	1.8957534036688133	2.8151022260907337	5.15634978615017	0.22932323	-0.25517729	0.13807124
H	1.3456733908890193	1.6205121713322506	6.138609723115417	1.20989924	0.77832415	-0.48406267
H	3.6962333818986006	1.9381921580405772	6.804479786094275	-0.09672665	0.43872279	-0.20810365
H	4.680453363483244	2.815402163655434	7.758779698278506	-0.63325333	0.31487699	-0.06592722
H	5.744193377578351	1.1845418957666196	6.214139677814135	0.01673664	-0.54390252	-0.8267623
H	6.920943381232353	0.3000418036533456	6.327249789831287	2.34842738	-1.1473552	1.85344113
H	7.147463345965553	0.649141816354059	4.244759688780813	-0.8810348	0.26179623	1.09198494
H	5.837163338392745	3.2582821537702635	6.228359747444398	-1.41446339	-1.68044795	0.72293948
H	7.200983369876113	3.941752162679709	6.560959749127684	-0.33570406	-0.19614333	0.31735267
H	4.61611334821578	0.46324179168234875	8.349669774278192	-0.02774492	-1.75724174	0.88072248
H	10.085613367690934	1.2416321421303471	4.278189779057711	0.31178073	0.16696212	-0.06834431
H	11.432930973570953	0.47264183997154113	6.236789717441014	0.3457154	-0.11144197	0.29769548
H	0.8205256998981163	5.389762146999542	4.9488897127111935	-0.1910807	-0.18756168	0.15908072
H	0.8029257018366295	6.923952186981312	5.254479794914511	0.00042703	0.67771234	0.02806084
H	0.7318563719748972	6.392792202390033	7.3276496767951045	0.04978778	-0.40022297	0.37958969
H	6.2121633945299335	7.4256322179233045	4.852897314328486	-0.50727956	0.23651981	-0.61942656
H	7.36631329176881	6.666632192068437	5.50319731788598	0.06196279	0.05633104	0.08211985
H	9.250483296031366	4.982322148082183	4.246719755510692	0.22010589	0.35417899	-0.93515452
H	11.315203339158673	6.459372202680515	4.8727696752982	-0.58501465	-0.18120205	-0.29120806
H	9.489353346814376	7.074632224784546	5.994639791035749	-0.87586376	-0.09146392	0.77295412
H	8.5680633327919	8.266092104055781	6.555749735096061	-0.15390098	-1.11692617	0.33553484
H	0.46763433934547427	9.143332178599431	6.86792968591313	0.24682951	-0.39786081	-2.22153142
H	2.7584633880330633	10.757662178172046	5.267319756871196	0.5935092	0.16391783	-0.07976764
H	1.478913315456428	9.340622188210348	5.703069709671945	0.69032706	-0.077788	0.03566073
H	3.5978333124913386	10.036612147345563	6.423909716911787	0.21995856	0.15900709	0.51653077
H	4.467453312430155	9.204482106211689	4.770579700048311	0.42984155	-0.42001244	-0.63173063
H	6.034833313468324	9.794892539125993	7.107689796307434	-1.0939049	-0.24039858	0.7278211
H	5.111783324859656	10.49260244098811	8.191849792267282	-0.2074395	1.11749106	0.2096385
H	8.081693340794176	9.954972124069606	5.175579674475583	-0.376159	-0.71593691	0.47745627
H	9.418183389330677	12.444834533604892	6.6761821623815285	-0.35896431	0.06094126	1.46609951
H	8.57496338648409	10.318462123792544	6.596789779073517	-0.73257528	0.2306337	0.25021426
H	10.880451029837197	11.876162182186357	5.184909764211989	0.89362812	0.66148867	0.15406947
H	12.302403310671018	10.305092475753995	4.918689702057263	0.81995669	-1.21263041	0.79882013
H	8.704663312014585	12.330838463640696	8.260362153802761	0.84185068	0.08414672	-0.83929973
H	1.4088033526973507	0.145514822272785	9.286779715219174	1.27033721	-0.62634273	1.03307183
H	1.224625675450741	3.207532191616736	8.940129721359622	0.53013804	1.34351612	0.48912005
H	6.712713306440061	4.055512191552889	9.967962190523906	1.15242647	0.40691235	-1.20375867
H	6.804533363388902	0.3100418523591417	11.285069707788834	-0.29994632	-1.1047836	-0.04757433
H	6.718663324413087	2.547432130026042	11.315269718442764	-0.16099925	-0.03066778	0.23542411
H	8.069993299094286	1.8941022130400706	11.843069790664641	-0.25431719	-0.07965754	0.19840619
H	10.420403357469134	1.5307418855725479	12.646939231886096	0.00233733	-0.46223616	0.32187909
H	11.223741027276896	0.4073202243510036	9.224829761875188	-0.50197038	-0.2993057	0.86875153
H	10.516103378453412	2.654541788860855	11.661982225890318	0.08296221	1.22054136	-0.38003763
H	10.449831010204733	0.7858491988092606	10.658369722613541	0.24069895	-1.42675813	-1.46574257
H	1.5615533086469504	4.217722160101416	11.467669747064772	-0.65133365	0.41080189	0.51256318
H	1.3082256662428031	4.882732227189437	9.07613967426421	0.207138	-1.00723772	-0.45688959
H	1.0119752990789954	7.062412212123477	8.737989756732757	0.37711282	1.82032335	0.46135514
H	1.616493342145181	5.439462202389415	12.443469777875533	0.11571739	0.71585231	0.4204897
H	3.2597333296692903	4.197792223523671	8.623129770434453	-0.77261527	-0.06821619	-0.22805287
H	4.6341033728872185	7.578512173729283	10.970769736445865	-0.21355286	-0.01759031	0.14108999
H	6.700963329228519	7.40232215788773	9.170109745420488	0.10480039	0.22419655	0.01264997
H	5.990783382802954	6.384992196974185	12.515269797338718	-0.00768669	-0.08949614	0.69123473
H	6.3329233502773254	4.531132108346871	11.422552146746032	-0.08253855	-0.29950235	-0.31280247
H	4.557103318318326	6.931062110481384	8.542839798301147	-0.98840393	-1.3643121	-1.12014542
H	4.5018433696860995	4.540482167041947	9.313449732882598	0.82538662	-0.03140579	0.46721155
H	10.984603392767305	5.279072155756024	10.277059740578732	-0.44182305	-0.02366034	0.34088935
H	11.641903397749855	6.128972182082751	9.130809705157654	-0.47636946	0.26157729	0.19607514
H	11.863403330364665	4.3843621588714266	12.135269690100278	0.663032	0.23429168	-0.13044314
H	10.367803357530835	4.832722211258599	12.228969712680044	0.25983573	-0.48927049	-0.12563201
H	2.2337433013856285	11.77776211386335	11.58498218950776	-0.29805046	0.35922376	-1.30871381
H	1.8418333912659268	11.194402468889159	9.580349725216138	0.25172507	0.81205822	0.50779083
H	3.6045933954311713	12.075062132359678	9.244669727139378	0.88104036	0.30199919	-0.20553242
H	7.670863294048622	8.358392189024517	10.030369733208406	0.3980922	0.24682084	0.42515933
H	5.038943301930693	8.55331214061061	12.147569681449669	-0.62957175	-0.60318327	0.1253411
H	5.985813286196218	12.065262167317552	10.18822970366832	-0.26891419	-0.35936304	-0.00920569
H	5.657153384872458	10.944462140825062	12.267261183517018	-0.23526213	0.05027976	0.47492124
H	7.587113370621825	10.38796219293034	11.389269735329858	-0.92447725	1.11792117	-0.40546116
H	4.918833390533219	8.422872125213287	8.787559741829341	0.46961837	-0.9861268	-0.21465402
H	11.418503393696714	9.761082158581845	10.101669770513302	-0.33293612	0.32618437	1.34729797
H	10.975203284898294	11.147562219201811	10.54776977159154	-0.30818147	0.63720487	0.0923291
H	8.929043363533792	9.73255213250798	11.418169741753944	0.00687241	-0.45027986	-0.17953941
H	12.20980332660205	9.377752178493132	12.593219179747974	-0.34580609	0.02211667	-0.5668182
Cl	0.0601862886163779	1.0224231363020955	8.079382152894434	0.52763452	0.44359446	-0.52204642
Cl	8.381633387430078	4.163562130848469	8.63573979880936	0.0511553	0.11922664	-0.1723805
Cl	1.0237893349772027	9.202682104961877	8.991979680778128	-0.06417255	0.11329	-0.1074371
O	1.2748963603101409	2.920422157226406	1.751619726332387	-1.07107221	0.05391464	0.23637878
O	3.323963385931297	1.1522418524582532	1.536439730958086	1.45684389	0.95617601	0.09825921
O	1.708383384470203	4.154912177045434	4.09590977391954	-1.00005342	-0.61537598	-0.35807537
O	6.070293327331266	2.227592191932824	1.66765967509133	0.41182013	-0.6697173	-0.74064816
O	7.325513330653484	0.6500418796225662	3.286859677274592	0.74459538	-0.52784622	-1.15019316
O	11.592450974342757	1.1073418004012092	1.4737297439915515	0.32122163	-0.66921227	-1.86301416
O	9.910243381561457	1.7352821403512324	3.4267597723021828	1.46665937	0.73354001	0.70396967
O	3.7222133406339766	6.383202218700639	3.2326397695239057	-0.3227653	-0.3932746	-0.40917833
O	2.418023371651081	7.069362143864935	0.4865667929228036	0.34817669	-0.22206486	0.38483063
O	6.61045332286189	5.7059421953099605	0.2315972784225309	0.12746486	-0.2479491	-0.39205794
O	5.864043397335633	4.679232106772549	2.6846297123388148	0.52894976	0.36087336	-0.39013298
O	8.794283306155853	4.484862166008946	3.508499705349104	1.182983	-1.18296256	0.78083785
O	9.259593374413507	5.753552209574383	0.9714972230795116	0.20936559	-0.82947788	0.14964444
O	10.52750330268428	7.871102145104751	1.9876097864964293	-1.49929463	-1.05889306	0.72801473
O	0.5680253981302099	11.56416221612684	1.857839676731073	-0.60295643	-0.59636244	-0.74682206
O	2.629963301879772	12.337362168316526	3.961449753051077	-0.50190806	0.56749854	0.4440876
O	5.115893294888156	10.513562113089778	0.3473804157825206	1.48243736	-0.38719307	-0.70125958
O	6.307443377157358	10.4087621238478	2.6905972290784925	-0.0270678	0.37155899	0.09711248
O	12.533203354031757	9.017192145306568	0.785026782813624	1.57914442	1.60806259	0.78588921
O	8.783503288428225	9.826202187092273	3.212389796111687	1.56039503	-1.67889764	-1.44712291
O	2.1628033498949955	1.969832188361959	5.629289755800104	-1.36974044	-0.67726738	0.76073506
O	4.617133369311125	2.0360821821589496	7.1452197149731616	0.33810659	-0.51497192	0.32329327
O	6.282913313656778	0.5120417838037152	5.684619722647859	-1.94310908	1.28936399	-0.832109
O	6.429623342492421	3.9274121652516008	5.9596797629472285	2.07543079	1.98274407	-1.35722093
O	10.681651074660817	0.2169418085973348	5.668109681583425	-1.25373859	-0.09265661	-0.50545554
O	0.8137963853038479	6.230462208700746	8.310129676775603	-0.95499483	-1.35624181	-0.6246121
O	4.1932933563832435	4.433572216009194	8.402689775467273	0.24791802	0.01566693	-0.07460024
O	0.3779256970610453	6.087352149008101	5.506129761964453	-0.14815996	-0.11158076	-0.00327563
O	6.745443386232894	6.606972179877823	4.746097278327775	0.7653811	-0.30660397	0.51948525
O	10.373203328277025	6.538462130220504	4.508039714113584	0.74118021	0.16362819	1.04544216
O	8.784223318154325	7.249052183017877	6.739629784377339	1.38217479	0.48260272	-0.74866982
O	0.5601663556346942	9.01266213589685	5.803749741334715	-1.08689453	0.17768028	2.52830057
O	3.0174234030722262	9.88953211204195	5.656559726744331	-0.05865616	0.16658747	-0.66868952
O	5.125343338268819	8.648442212927486	4.2497597634551605	-0.7780607	0.07306421	0.22920906
O	5.174223394788567	9.694292552800242	7.639139700321109	1.06305913	-0.4355175	-0.99866795