197
Lattice="13.410614 0.0 0.0 0.0 13.063033 0.0 0.0 0.0 13.106016" Properties=species:S:1:pos:R:3:REF_forces:R:3 REF_stress="-0.0031522935576716662 -0.0021514259946439985 -0.0007323062793252813 -0.0021511856715766154 -0.002690019517228996 0.00032380312087000596 -0.0007321549664195425 0.0003244658692750287 -0.003547333131825462" pretrained=F config_weight=10.0 head=target_head REF_energy=-1147.2027095 pbc="T T T"
Li      11.67533845       9.37591783       4.89373609       0.58958217       0.56286712      -0.04714249
Co       3.62730846       2.17522784       3.51208611      -0.55472797      -0.64493915       0.02794069
H        0.72547840       3.32193781       0.62721606       0.55620018      -0.31084680      -0.05701490
H        4.34699843       4.03863782       2.26076602       0.34935874      -0.17209582      -0.88893261
H        7.68967439       1.48321774       1.78268988       0.15193839      -0.13156094      -0.18227102
H        9.22671835       0.70142776       1.17678997       0.00969098       0.18507224       0.48769391
H       10.87640837       2.28733779      12.44224608      -0.51280755       0.09042702      -0.33733046
H        2.36487847       6.44675981       0.83599607      -0.22277837      -0.92454666       0.08427366
H        0.35295837       6.25971077       2.61170608      -0.27700085      -0.80541963      -0.71144183
H        4.26284844       5.58514778       1.45649608       0.23302552      -1.56907248      -1.02722407
H        3.15976846       8.92624775       3.40309609      -0.58237099      -0.43345416       0.95474811
H        7.19775738       7.61703078       0.70857991       0.09941971       0.00112300       1.20316078
H        5.59689835       6.09554084       3.85722610      -0.34206515      -0.19280078       0.69811549
H        8.19889846       6.13598883       3.38804606       0.46143577      -0.36959720      -0.08851814
H        9.62824835       7.22026181       1.95364606      -0.22273187      -0.21162160      -0.01114903
H        0.50042845      11.06088783       4.17263601      -0.66236781       0.05833319       0.06637362
H        3.79982836      10.42128779       2.91629605       0.47207065       0.92035395       0.32166056
H        0.98811843       9.16976776       1.01455610       0.54652798      -0.44061998       0.01847797
H        2.22782843       0.13001780       0.10652609       0.02777830      -1.03256600      -0.01276931
H        6.73694791       1.74016785       4.53903605       0.35654893      -1.22960201      -0.06057352
H        5.98444444       0.12006782       2.12229992      -0.38958998       0.59402102       0.70793758
H        8.40800842       0.19280775       2.73319990      -0.07321404      -0.71203875       0.25195537
H        8.26337844      10.69927043       1.50459988      -0.73121049       0.42966566      -0.15629928
H        5.99055136      11.50528031       1.66153000      -0.24350583      -0.48561850       0.12030920
H        5.29351835      12.71419043       0.57277996      -0.03579019       0.07485427      -0.52069538
H       13.21731228      12.34952778       2.76773609       1.20950606       0.03539215      -0.63114048
H        9.13792842      11.49082032       0.27369988       0.80879303       0.14401846      -0.67560381
H       13.14538218       9.90120784       1.91858603       0.34916646      -0.12603774       0.17279767
H        0.62069846       2.46956775       4.36187600      -0.48993365       0.12741918      -0.12292599
H        1.81241844       2.14687779       6.54767601       0.33587003      -0.17333111       0.59630454
H        0.88580846       2.29813778       8.14964611       0.34891764       0.97706972       0.70943810
H        0.69768839       0.85436779       7.28995109       0.05144662       0.77278139      -0.80540472
H        1.02549837       4.21877783       5.57181712      -1.02672962      -0.17281560       0.61129948
H        6.77315120       2.84265775       6.33836992       0.54941211       0.57549023      -0.06828346
H        5.73985844       2.21586785       7.61594607      -0.22366116      -0.09601446       0.29318661
H       12.13731224       2.60592778       4.47426612       1.10302460      -0.19933077       0.00438469
H       12.98214215       1.08882780       4.84864602       0.02917454      -0.27794280       0.16400451
H       12.01223225       2.31606784       8.07642608      -0.04209839       0.44173334      -0.13007796
H       11.75070221       1.21754779       6.77601204      -0.22035893      -0.16341191      -0.39078932
H       11.12061217       2.94668783       6.62290507       0.09750036      -0.53267626       0.20916414
H        2.94028834       8.90592781       6.84189310       1.07946773      -0.28413453       0.64678014
H        1.27117840       7.46383982       8.24624610       0.24902631       0.44694992       0.40307402
H        3.16257839       5.39238784       8.11188611       0.43309719      -0.55840491       1.07618561
H        2.55394841       6.29757384       6.84896510       0.11611712       0.82593193       0.33898138
H        0.43495837       4.48599783       7.26359909      -0.19938559      -0.49058182      -0.23284096
H        4.26601844       6.35103978       7.04095303       0.94802243      -0.62612271      -0.30600143
H        7.80422839       5.66284774       7.32060803       0.52580173       0.17555856      -0.14059846
H        4.71076844       8.50714778       7.19170302       1.41871961      -0.06728175      -0.88516760
H        9.01611847       7.93816780       6.11981504      -0.79364334      -0.20043808       0.38284863
H       11.45102220       5.04579777       6.37154177       0.61502522      -1.15628051      -0.20249795
H       12.19421226       7.29206081       6.99635103       0.32752384      -0.73692478      -0.90691711
H       12.83709228       6.84935281       4.89460607       0.09493648      -0.49684236       0.56696814
H        9.33643836       5.64693776       4.73182607      -0.49004304       0.60685240      -0.24124927
H       12.20144219       4.67906776       4.73173603      -0.47503762       0.05472701      -0.39191831
H        2.74500835      11.39424036       4.98799600       0.85809675      -0.64794968       0.17644585
H        5.87609446       8.29530785       5.12835606      -0.46073849      -0.36390560      -0.07498000
H        3.80079835       9.55459778       8.27513609       0.19663045       0.93252633       0.29832868
H        6.00238744      11.75389033       6.16713103       0.59597394      -0.98064413      -0.10783126
H        7.32385537       8.94390780       4.59849608       0.52326638       0.33579376      -0.20065010
H        5.04843844      12.55499034       7.21652005      -0.81216630       0.07637863       0.81254185
H        9.60160843       0.27118516       8.27871600       0.54089651       0.53570654      -0.07495266
H        8.85100847      11.66215035       7.30280206       0.64812928      -0.59287947       0.65906715
H       12.80558847      11.21933785       7.19891408       0.42154093       0.08444990      -0.18259350
H        2.09045842       3.51620783      12.64388213      -0.00741982       0.32874834      -1.76251888
H        7.15737534       1.44397782      12.74483607       0.85738912      -1.06969685      -0.16255283
H        5.62063836       1.58039782      11.11904604      -0.02385064       0.31856045      -0.96582634
H        8.58492834       0.32162780      12.26061609       0.69677779       0.57123800      -0.04863323
H        4.85104842       3.78213773      11.30927213      -0.00669080       1.00848732       0.32639643
H        7.28370346      12.88923037      10.38938603      -0.03624792       0.88930281       0.24463738
H       12.15310847       0.12912520      10.26565606      -0.05440545      -0.04514297      -0.09568426
H        1.92073838       6.99683183       9.85781610      -0.20849987      -0.21828681      -0.26423227
H        4.38386837       6.51443677      10.06536612      -0.47202110      -1.52784231       0.57932158
H        3.34652842       8.74028778      10.65386609       0.63637189       0.17808314       0.33701208
H        7.74546536       5.81832082      10.97597605       1.51029067       0.05275553       0.76476694
H        5.45171840       7.39311577       8.96971602      -0.30064502      -0.19907084      -0.04076970
H        5.93557147       8.37226779      11.46026602       1.11923208      -0.25397787       0.90768908
H        8.56922840       7.22884879       9.01637606      -0.59722797       0.54455815       0.73659944
H        8.85840844       4.61369773      11.81078603      -0.31121321       0.98625554      -0.11778588
H        4.76727835       9.06626778      13.08250222       0.09513840       0.16930965       0.41359579
H       13.36775845       3.62200781      10.40672607      -0.25777690       0.21758595      -0.07633642
H       11.69567846       5.90953776      12.24522609      -0.09117441      -0.24201032       0.10670476
H        9.46953843       8.12657775      10.73782611       0.44722425      -0.57683085       0.26424016
H       12.10407846       5.69831780      10.54632611       0.30190583       0.30076213      -0.26713167
H        1.90835837       8.69007779       9.50937602      -0.14561576       0.58561887      -0.46158373
H       13.25992840       9.58565775       9.58368608       0.60339028       0.03414250       0.26715675
H        2.36722465      11.43309778      10.02452607       0.45887803       0.14452137       0.01007068
H        4.79170847       9.57383779      10.07402605       0.22442638      -0.71505445       0.21933592
H        7.60875837      10.70845035      12.92174606      -0.53962459      -0.20463393      -0.45601702
H        4.84238838       0.06636778      10.61463611       0.03706697      -0.19421059      -0.50277410
H        6.46245034      11.86791036      11.44553604       0.06167075       0.23043649       0.24576873
H       11.57403843       9.36937782       9.95458608       0.20692205      -0.01843858      -0.79779650
H       12.49729844      11.67869782      11.15976604       0.19866187       0.60365838      -0.83401841
C        2.35589845       1.85426782       0.77506607      -1.34313732       0.96137928       0.68193388
C        1.83930846       3.28436774       0.53353609       0.06990730      -0.86077780       1.35675992
C        2.44368835       4.45597781       1.32039600       1.29675363       0.90626440      -0.68083229
C        8.27615835       0.55185774       1.72173000      -0.04191903      -0.06824859      -1.11269526
C        4.66849845       3.74489777       0.08482607      -0.47108966       3.12053517       1.26700302
C        1.96814839       4.46565778       2.78522606       0.38600537      -1.24120225      -0.50409127
C        4.04923842       4.46141778       1.27005605      -1.40942897       1.39883622       1.77444621
C        6.47015246       7.68305475       3.12478604       0.59296797      -0.33839548       0.03566188
C        8.50975837       6.38680375      12.92124606      -1.14453479       1.14635857       0.53313509
C        8.71109835       6.47616378       4.29675601      -0.38138042      -0.42140355       0.13315080
C        0.25939842       8.17562774       2.86245602      -1.24358601       0.79361983      -2.02701060
C        9.61228838       7.64517182       3.94848604       1.00157702      -0.12523538      -1.93878001
C        3.52061844       9.00103779       1.45695610       2.09658285       1.95154000       0.29756842
C        3.02147834       9.72130781       2.69160612       1.48437542       0.46450559      -0.53161074
C        1.65615837      10.35394773       2.76302605      -0.12763689       0.23786183      -2.49757879
C        1.52903836      11.66146781       1.81794611       0.18421315      -0.02648286       0.76839096
C        0.72468838       9.37534776       2.04630612      -2.63579695       0.76779198       0.94694610
C        6.07085237      12.51538035       1.29553992       0.67013462      -0.23817896       0.15495884
C        0.12256845       4.10916775       6.26095032       0.88176787       1.15480495       0.75765862
C        0.92045840       1.95064779       7.14194603      -0.91595172      -1.12395735      -1.50061402
C        4.86052839       2.22891782       5.57019604       0.12898173       1.45006654       1.86702720
C        6.03481041       2.10508784       6.57501712      -1.41632885      -1.07223117      -0.27491496
C       13.09907224       2.17058785       4.86650612      -0.25879807       0.24482672       0.79150165
C       11.91729221       2.26922785       6.98229509      -0.24968406       0.71456530       0.64148341
C        3.36508844       6.31714174       7.61184612      -0.78976452      -0.26506781      -1.68663229
C        2.00534836       7.72357183       9.03393602       0.26954442      -1.19233395       0.40713971
C        6.75411349       8.02471784       4.53488603       0.09285605       1.30765943       0.86035268
C        3.77053837       8.72742774       7.59978609      -2.91338111      -0.55569142      -0.17005002
C        6.70459225       5.77016382       5.69509506      -0.37971891      -1.63197241       0.67732718
C        7.57062542       6.93827679       5.27290611       0.66135723       1.11258653      -0.80138222
C       12.38915217       4.98324779       5.75819804      -0.84530454       0.66671104      -0.13022561
C        4.36819847      12.39208035       5.20764602       0.04817526       1.22135245      -0.39196511
C        5.42055843      12.65426038       6.21377705       1.81333269       0.29057139       0.47071542
C        7.76588838       0.22336780       7.06861105      -1.17029959      -1.55650825      -2.02435416
C        6.57398038       0.72352780       6.22822709      -1.55406201      -1.00775222      -2.11423877
C       10.78490843      11.78580776       8.51062603       0.11250975       0.60325248      -0.03099068
C       12.23227843       8.99099781       7.85043603      -0.95544229       0.26353040       0.05311843
C        7.54127039       0.39153775      12.52048611      -0.94902666       0.70636108       0.51003838
C        4.44314838       8.59618776      10.48894601      -2.56202876       0.35506268      -0.36131200
C        4.47259835       7.38870583       9.48568611       1.29730761       2.05151083       0.40232984
C        8.70498834       5.72487782      11.60857606      -0.59409798      -1.45331544      -1.06339784
C       11.46506834       3.92484784      11.42866611      -1.29014257      -0.67337866       0.85612817
C        9.84663845       5.77930285       9.30819605       2.05242343      -2.21349533      -0.54165812
C       10.01912845       6.16523878      10.86773609       0.90883354      -0.24574238      -0.92982274
C       11.37790847       5.43240775      11.30536602      -0.44028371       0.55026638      -0.14244553
C        0.79458463      12.49372772      10.02199609      -3.36470397      -3.55437868       1.46595052
C        8.12975843      11.27275037       0.56319998       0.56052477       1.45474690       1.52526978
C        6.73900550      12.94116036      11.35282605      -0.01416572      -2.27093248       0.23815397
C       12.27535841       9.74877780       9.16704609      -0.67104790       1.38019584       0.20700936
C       12.16045842      11.38438783       8.98573603       1.58864614      -1.22938436       0.76253617
C       12.67223842      12.23556784      10.18621604       0.05938777      -0.86014600       0.83423826
N        7.48584540      12.68749038       0.78412993      -0.48523290      -0.63129449      -0.75295684
N       13.20779222       2.65134781       6.33946650       0.17997421      -1.17152958      -0.52034572
N        3.39441840       7.51735580       8.44646606      -0.81433762       0.85584342       0.20550440
Cl      10.82377842       0.66541782      12.62280215       0.47362045      -0.67409076       0.24561207
Cl      11.84068837      11.75239775       3.97438602       0.32044209      -0.15045227      -0.01368787
Cl       6.05444342       2.95101783      10.04603606      -0.01286058       0.32465617       0.06427198
Cl       1.37188836       4.20225518       9.89581608      -0.55430003      -0.09066183       0.19187798
Cl       4.27934457      11.83256780       9.36395612       0.05798396       0.17747959       0.23894474
Cl       7.70625246       8.79095523      10.19590610      -0.08460414       0.14441476      -0.21507262
O        2.78207837       1.42499776       1.88753604       0.21272059       0.09652042      -0.80358728
O        2.64826847       3.84658773       3.69569602      -0.56335154       0.46609022      -0.08541149
O        5.24693846       2.64037774       4.41372602       0.75256358       0.16286204      -0.77374724
O        5.35727844       2.76567783       0.23859607       0.89019394      -2.08266772      -0.03561338
O        0.83606836       4.93562781       2.97809603      -0.96622153       0.61507021       1.27687080
O        1.89236836       5.58773779       0.63476604       0.30393326      -0.17163630      -0.07188242
O        3.19292835       7.87407782       1.20845607      -1.05655795      -1.92528626      -0.92071393
O        5.75868346       6.60708280       3.00596611      -1.05090599      -0.82441891      -1.81449520
O        7.33040847       7.07797782      13.00441606       1.55390294      -1.45934210      -1.61004588
O        0.15620844       7.12421377       2.07653607       0.59343653       0.19031511       1.09267235
O       13.12858216       8.29574781       3.98066603       0.56138323      -0.52014996       0.30400493
O        9.35357846       6.30638681       0.72443989      -0.17474163       0.23749169       0.16940661
O        9.98256843       7.84655780       2.68915608      -0.22265675      -0.24311279       0.56007869
O        1.36208842      10.59524781       4.08995605       0.38418736       0.45519466       1.05395593
O        2.25241840      11.76005778       0.81877608      -0.17197380      -0.14155305       0.31426284
O        0.64966847      12.62236777       2.13187609      -0.79357551      -1.01658036       0.51466892
O        4.61323841       9.57925778       0.86833608      -1.38844412      -0.17674054      -0.11867721
O        7.02459444       8.19313782       2.14865611      -0.16313467       1.04500867       0.35898520
O        3.63749838       2.00623779       5.80328601       0.87148191       0.00586137      -0.26382687
O        8.52215836       0.99154779       7.62120604       0.76534261       1.27423976       1.12619988
O        8.14143841       7.52319876       6.42391852       0.47069775       0.20285680      -0.13766148
O        5.65197842       5.32718777       5.15835612       1.64670470       1.18244399       0.52318598
O        7.22283242       5.11353782       6.72749605      -0.85564535      -0.16960153       0.16058757
O       12.12851836       7.65829076       7.91217611      -0.01331649       1.45375508       1.31742584
O       12.75405215       6.36955075       5.78071601       0.72757080       0.75285398      -0.47533244
O        3.63140835      11.30591035       5.49427511      -0.88907100       0.39292825      -0.08446727
O        4.16175843      13.05303035       4.18174600      -0.43022549      -0.19726035      -0.52322135
O        7.96216841      11.97321042       6.95115808      -1.21691917       0.97531825      -0.50789731
O        7.06711843       0.81666775       4.81290605       0.25024720       0.69247438       1.07046756
O       10.12570836       8.40207776       4.78292604      -0.66484587      -0.18781163       1.20946360
O       13.10728839      11.76029775       7.97212604      -0.75241494      -0.04670844      -1.12371664
O       10.01938835      10.97883775       7.95929604      -0.09122429      -0.06908413       0.05852563
O       12.25113844       9.59225785       6.75205004       0.20426045      -0.51095811       0.05890814
O        2.11975846       1.06094776      12.86144213       0.35911479       0.87811250       0.48677169
O        1.33205454       0.45490522       9.85959603       1.72935499       3.68265933      -0.83715933
O        5.48215835       0.55101779      11.27579609      -0.62091081      -0.12369890       0.78817312
O       10.61310841       3.35228780      12.25397606       0.73486817       1.10166018      -0.36629785
O       12.28391841       3.16724773      10.82376606       1.05241731       0.67184202      -0.20831164
O        4.46239837       4.41184775      12.06670223       0.10599807      -1.28937075      -1.23992351
O        5.00597843       8.30957778      11.78224611       0.40308321      -0.12731103      -1.70291021
O        8.83882841       6.33557485       8.69152602      -1.13797823       0.57899227      -1.05942588
O       10.52829834       4.96351777       8.61954607      -1.01744631       1.45279637       2.26828213
O       10.31748846       7.59073385      10.97026602      -0.64350752      -0.87202590      -0.19218354
O        1.40328462      11.31521776      10.24181609       0.68112732      -0.87920923      -0.00621609
O       10.55219834       0.02012517       8.63141606      -0.22326615      -0.72170927       0.22405284
197
Lattice="13.534978 0.0 0.0 0.0 12.753486 0.0 0.0 0.0 14.551697" Properties=species:S:1:pos:R:3:REF_forces:R:3 REF_stress="0.0053857594711945005 -0.003722222058777904 -0.000270721626048583 -0.0037222508071689375 -0.001595515766996767 -0.0018244943235661527 -0.0002714236273044985 -0.0018246174622996972 0.002423745965074065" pretrained=F config_weight=10.0 head=target_head REF_energy=-1147.98816516 pbc="T T T"
Li      13.18068975       3.67158662       6.96575249       1.13172389      -0.11661938       0.04024086
Co       3.01038230       3.52430669       6.90183446      -0.45040923       0.12814186       0.37037257
H        2.63613232       0.01424042       0.33551556       0.75554870      -0.03947785      -0.30651876
H        0.27286474       3.89438658       2.91151238       0.23505489      -0.03524904      -0.50617418
H        0.26372471       1.46054659       1.71519236       0.68887145       0.40067507      -0.80884101
H        5.36515221       1.32039662       3.78865243       0.77638726       0.14283890      -0.76233037
H        5.33863123       1.43964669       1.96237243       0.78508227       0.46437048       0.65414605
H        6.64375132       2.43114658       3.03241239      -1.30096372      -0.45384145      -0.60819156
H        8.36925225       1.52205666       1.45764245      -0.86712489      -0.63195460       0.06003395
H        7.25296229       0.22489663       0.72587240      -0.37471423       0.31111515      -0.61112390
H        8.68915226      12.55755293       1.56634247      -0.09954312      -0.13592354       0.28460787
H        8.77240225      12.59724293       3.94426246      -0.20694527       0.33003682       0.02790356
H        8.53806225       1.59962668       3.77346235       0.12172024       0.38838677      -0.12979243
H       10.47013224       3.79779665       4.40211239      -0.53378298       0.77879765       0.26365869
H       11.97326228       2.16096666       0.01520245      -0.24459357       0.91994556       0.78866899
H       12.20573229       4.35905858       2.86254243      -0.93373692       0.44118918       0.03496120
H       11.40935221       0.60432038       4.21952236       0.43352952      -0.45915175       0.03186719
H        1.15587476       9.30393669       1.81606239       0.29130244       0.11879876       0.37668020
H        3.72217228       6.08508264       2.42537250      -0.49548795      -0.24495449       0.01880232
H        0.23206477       5.83785159       0.84912236      -1.05730248      -0.71866817      -0.59180015
H        4.27655224       4.53619060       1.63701249      -0.19042980       0.53939623       0.27813445
H        5.34854831       7.70955668       0.92854247       0.99028826      -0.17226266       0.91701761
H        8.54099230       6.46719660       3.71374248       0.10666383       0.31644027      -0.07128790
H        7.29573227       5.17072169       3.06613246       0.23958602      -0.51429330       0.35410178
H       12.65281222       7.70870666       2.36112239      -0.58290585       0.91170200       0.45264168
H       12.18019233       8.62482669       3.89316243       0.35503489       0.09698515      -0.40911099
H       11.06553225       8.59350668       2.56132245      -0.30957644       0.01417483      -0.49982159
H       12.69427230       8.84187661       0.29335246       0.10280781       0.26666537       0.22539534
H        0.91939475      11.01502667       2.44141239       0.04554761      -1.21324628      -0.05588583
H        5.85533726      11.87115290       3.83186239       0.28045767       0.10221551      -1.17836745
H        5.82431225      11.78008293       2.02437240      -1.06226684      -0.34182696      -1.37579739
H        8.37158230      10.81939291       2.45114239      -1.25933424      -0.54004990       0.01859408
H        6.77938033       9.86691295       2.65850247       0.08594841      -0.96752426      -0.62899065
H        8.05870221       9.49553296       4.55804241      -0.26457412       1.44597585      -0.80608574
H        0.85911470       9.60149657       3.60312237      -0.45910037       0.10449558      -0.72755529
H       13.30023229      11.98490660       4.16181237       0.86595276       0.15348266       0.56544327
H       12.35909225      11.96586667       2.14251239       1.05888859       0.75258578      -0.95471023
H       13.19803225      10.60975659       0.38379242      -0.67479463      -0.28505322      -0.64072752
H       10.98225221      11.11456661       2.38392242      -0.35302273      -0.70869278       0.73130624
H       12.22655220      10.71111658       4.93053238       0.47579649      -0.63560504      -0.00234691
H        8.81526224       3.30269662       4.75838246       0.66002462       0.08205880       0.93428740
H        7.76486231       0.49617030       7.91594148       0.68189123      -0.31431303       0.26013364
H        7.60383222       0.66176667       5.04807240      -0.07499263       0.01157545      -1.97581924
H        9.63187224       2.71745661       8.13162047      -0.20447817      -0.09506607       0.35856719
H        2.90364222       8.31892667       6.02316240      -0.10558474       0.07466764      -0.30100231
H        3.82321224       7.67705658       8.25783142      -0.07072565      -0.06430090       0.35682146
H        5.91744629       5.19531067       6.21040243      -0.64701116      -0.10877285      -0.12849187
H        5.18065829       8.21660659       5.99245235       0.27906804      -0.26539115       0.45561812
H        6.26313327       7.74834666       8.34917038      -0.40641389       0.20826410       1.03995610
H        6.18168330       9.36751665       7.04548444       0.40028132      -0.18432755      -0.12566228
H       12.52147232       6.27708969       9.52575249      -0.01317101       0.08188161      -0.60112601
H       11.09573230       6.24045364       5.28746237      -0.76539021       0.15819428      -0.05953184
H       10.33932223       6.28815168       6.79954243      -0.07920556      -0.40887021       1.99709630
H        3.72571222       9.03049659       9.43062237      -0.71262252       0.67427435      -0.25673798
H        2.02712222       9.16054670       7.38097250       0.83911344       0.15023458      -0.98454287
H        2.58626229      10.13877659       6.00531242      -0.10558528       0.85426079      -1.00011548
H        5.35047732       9.89431662       5.57186248      -0.18585571       0.12992981       0.36622308
H        4.22404221      11.68612660       6.96142846      -0.08852479      -0.37245569       0.17060634
H        3.04565228      10.97962669       8.16463042      -0.03532666       0.60693025       0.20222231
H        4.78998226      11.09041661       8.59328237      -0.06651747       0.01886683      -0.37561028
H        8.08722230      11.81469666       8.98980243      -0.01110997      -0.19342372      -0.60956886
H       10.46550233       8.45105661       7.13117545       0.11798511      -0.00930685      -0.31669792
H       10.83355221      12.70648661       6.08572247      -1.59177090       1.04280901       0.17047469
H       10.22924226      10.37856662       8.91003236      -0.20443245      -1.54718062       0.06146337
H        2.10659473       3.48507658      13.63233927      -1.16737444       1.74777427      -0.33446884
H        2.37076230       0.22562040      11.93907239       0.59678257      -0.03188365       0.10588396
H        5.54510826       1.34114042      11.19039239      -1.06377341      -0.88878500       0.70558717
H        6.09766695       2.67643668      13.67127932       0.31905906       0.71553126       0.15595670
H        8.82861220       3.04561032      10.74057238      -1.49124891       0.06338504       0.19333258
H       11.89865221       3.59369662      13.59384930       0.23286539      -0.15394588       0.56096161
H       10.48482229       2.06924039       9.96252239       1.18854826       0.55600627       1.13838807
H        1.37524224       7.13060668      13.05849922       1.49962746      -0.64759270       0.01282159
H        4.48279227       6.02941061      12.75358922       0.46048809       0.26510106       0.36616748
H        5.95549217       5.99229465      13.84169933       0.78690676       0.60705171      -0.09782420
H        8.34394225       5.37766907      10.37351237      -1.01622637      -0.49542041      -0.40976128
H        5.51781431       7.97437670      10.07279239      -0.12358895      -1.63370340       0.27327211
H       11.34436226       8.57797663      11.53650246       0.52716315       0.74722315       0.74490702
H        9.72862229       7.79286666      11.68204242       1.14355911       0.80218387      -0.83446172
H       10.40325226       5.22016160      13.90525925      -1.16760005      -0.76143571      -0.68961164
H       12.94372220       5.18037965      10.80722249      -0.20390381       0.46013264       0.10438783