197
Lattice="13.42255 0.0 0.0 0.0 13.074659 0.0 0.0 0.0 13.117681" Properties=species:S:1:pos:R:3:REF_forces:R:3 energy=-1146.92688411 REF_stress="-0.003664158010911852 0.0008123866764140464 0.002154040182084774 0.0008122271559238072 -0.005092000204026445 -0.0008786566173316615 0.0021531404435782414 -0.0008789064025268794 -0.006805207408753621" pretrained=F config_weight=10.0 head=target_head pbc="T T T"
Li      10.85690642      10.48410112       5.39566147      -0.05683103       0.40177252       0.14525851
Co       3.97330640       2.12409109       3.89039853      -0.83982099       0.08032550       0.57725371
H        2.12826634       0.94667109       0.05327851      -0.18123843      -0.03635808      -0.15529287
H       12.73367618       2.80890107       2.84052848      -1.34698305       0.17100259       0.71043069
H        1.85924636       4.55304112       1.13863845       1.21973721      -1.46378595       0.34598442
H        5.19441642       3.24112106       2.49629849       0.94780923       0.55314617      -0.71900008
H        8.34511636       1.49870111       1.90631754       0.06352846      -0.47059706       0.06138952
H        6.02216534       4.76084113       2.57173854       0.61449676       0.83161216       0.41510427
H        6.05450335       0.53428104       1.07446754      -0.18776287      -0.44708556       0.26310288
H       10.95508620       3.29325104       3.22248846       0.45292043      -0.56930538      -0.05569751
H        9.74309639       0.37072111       1.82153758       0.14878818       0.02159657      -0.10900607
H       11.66422608       1.57513112       3.60759851      -0.00284071       1.26149578       0.49565242
H        1.92051641       7.11436502       2.80734848       0.47052637      -0.65193221      -0.09032156
H        4.76616635       6.41404405       1.41187843       0.91628013       1.35169876       0.53757187
H        7.48142334       7.85933112       0.75884748      -0.13606115       1.05257016       1.38268435
H        8.31355632       6.65908120       3.15329846      -0.38417072      -0.30722592      -0.60364872
H        5.39157636       6.78725862       4.10225852       0.01031760      -0.22505556       0.54556995
H       11.46294608       5.01484109       4.06515844       1.36152477       0.12197857       0.16075735
H        9.98727633       7.53278314       1.78680851      -0.49236915       0.99553727       0.54544442
H       10.27599618       3.35792105       5.48679551      -0.76601250      -0.50559851      -0.17120526
H        2.03288637      11.23124022       4.63693848       0.47794146       0.27623350       0.33242500
H        2.88166640       9.83008104       2.41281849       0.52509766      -0.39978901       0.04761040
H        3.11248634      11.33390114       1.51814844       0.32727681       0.76259372       0.18651261
H        0.19592641      11.62209108       3.49381850      -0.15502217      -0.16024008      -0.02721666
H        6.30585643      12.46924022       2.51387750      -0.41947099      -0.12128735      -0.55237085
H        6.11638439      11.78971030       0.77727756      -0.83843215       0.31125645       0.57861465
H        8.21081637      10.83509021       2.29334750      -0.43985577      -0.23096334       0.51507525
H        8.47776632       0.09530106       3.09202748       0.25478526       0.48873505      -0.62983133
H        0.20027639       9.24673106       0.55026848       0.24301549      -0.43793699      -0.77610550
H       12.35953617      12.75692103       0.30143854       0.25906340       0.38008711      -0.44739066
H        9.53351643      11.42368025       1.30426754       0.25160566      -0.82970573      -0.47225820
H       12.43913618       9.61963106       1.82813852       0.11528657       0.82056845      -0.11377471
H        0.81275633       2.70825104       4.45528851       0.93819150       0.13377809      -1.09896263
H        3.57005636       3.56785104       7.59234846       0.03092102       0.44760156       0.82099830
H        6.53217243       0.01572110       5.13538845       0.18298346      -0.42954300      -0.28307055
H        6.90364136       1.16912112       7.16650354       1.59003749       0.37433612      -0.18940155
H        5.43319634       1.24657108       7.96081847      -0.39737369      -0.30134287       0.33558775
H        0.61874639       3.17608104       6.14193946       0.06526526       0.40849821       0.33652831
H       13.42082617       1.62239105       5.58372048      -0.17226539       0.24183676      -0.22796693
H       11.42204610       1.87224112       6.01094053      -1.36024271       0.72441950      -0.04891647
H       11.40039620       3.47087106       6.83851246       0.05175362       0.00521581       0.10063663
H       13.32468608       4.83656105       4.06188847       0.54959686       0.61858669      -0.84579123
H        3.81435643       5.51112103       6.59783147       0.01818038      -0.12139601      -0.01377042
H        0.06239633       7.12537611       4.88854845      -0.02182661      -0.13236757       0.35307814
H        3.46069641       7.06047206       7.43279850       0.27963866       0.14569233      -0.03348734
H        2.16333637       5.85008614       7.39258848       1.80443594      -0.24729428       0.27254146
H        8.54288636       5.36264115       6.73698843       0.46273999      -0.40983238       0.40708511
H        5.87913840       5.16132107       8.16773848       0.15604006      -0.29897097      -0.40948096
H        5.47485644       6.56207612       9.17254851       0.65602078       1.48172870      -0.30675597
H        9.44045642       7.97622106       6.12604949       0.34169930       0.50241701       0.75038741
H       11.47886617       6.03967812       6.03952749       0.31566589       0.11896476       0.70835091
H       12.86723619       4.95256113       6.69841654      -0.62481611       0.90200150       0.11460218
H        9.68585633       6.11222312       4.08729846       0.32312497      -0.49066881       0.28145393
H       13.35750610       7.88396104       6.81366245       0.42672879      -0.82295957      -0.48864066
H        3.77519641      12.42377021       7.59478848       0.81805536      -0.90657972      -1.45856005
H        6.30776834       8.42779102       5.64794150       0.64348849      -0.19481311      -0.05261921
H        4.42462635      10.87742020       6.87796650      -0.48893844       0.47290435      -0.20393315
H        6.57824037       9.81745026       8.49361853      -0.17355274       0.71029173      -0.63065259
H        7.77687634       9.09541110       4.85196849      -0.48859749       0.35253767       0.33824243
H        8.90993631      11.55353110       9.13926843       0.04406533      -0.24032542      -0.48721954
H       12.47944638      11.88725105       6.57568949      -0.21218545       0.01950689      -0.73878171
H        3.03315639       4.16459104      13.11204941       0.50421431      -0.00414247      -1.19577337
H        2.40181642       3.81538114       9.03614850       1.28627503       0.29591790      -0.88351019
H        4.09328641       3.24549114       9.34239847      -0.41123889       1.33185841      -0.92107981
H        7.60959634       1.10641113      12.90516849       0.32076481       0.79187657       0.22028373
H        5.66278636       2.88641105      11.90997949       0.18851915       0.66630312       0.62404453
H        6.06038940       0.85585111      11.07656849      -0.29324461       0.51616881      -0.65483364
H       12.05368632       0.45750194       9.09315847      -0.21230018       0.50846975       0.44358414
H       11.13784643       2.87849108      12.77362846      -0.07509306       0.94004169       0.18959304
H       12.91069640       4.52519105      10.36773847       0.44927500       0.10163461      -0.25037340
H        2.06201639       6.04563506       9.62034849      -1.32599666       0.11153828      -0.17371202
H        3.34890643       5.56433110      10.77074852      -0.53485536       0.26837087      -0.12742457
H        2.67377634       8.12825111      10.42152843       0.26184258       0.31345969       0.09671732
H        4.03797638       8.03241111       9.23433843      -0.49488197       0.01382816       0.22062789
H        5.59952642       5.07793103       9.93190850      -0.24187057      -0.66274417       0.04834232
H        7.71232636       6.27589707      11.05828848      -0.12142550      -0.21588849       0.28748395
H        8.52405640       4.88643107      11.84767851       0.06725126      -0.19917867      -0.17490109
H        8.21625639       6.77406433       8.97599843       0.34229908      -1.76195663      -0.12368424
H        5.42499637       7.97452109      10.85614842       1.17629680       0.54275034      -0.65925425
H       11.21585641       6.56880408      12.40047844      -0.17022768      -0.09126378      -0.52742279
H        9.12565642       8.15315114      10.44950845      -0.17874633       0.51306773      -0.17522883
H       11.85274632       6.54797210      10.71021842      -0.30377259      -1.36770132       1.13147371
H        1.88377661      11.67335106      10.80591846      -0.45654363       0.26581220      -0.49335166
H        4.22434634       8.80644113      12.34206948      -0.49357737       0.90987785       0.19713639
H        5.21408637      12.26496030      11.24636848      -0.69239606      -0.00596148      -0.68835390
H        8.03052642      10.63497026       0.52171746       0.23504227      -0.49475699      -0.20926697
H        9.14079639       0.17129111      12.58155845      -1.02253954       0.03405937       0.45274144
H        7.95171633      12.68481023      10.80259851      -0.95928568      -0.27329519       0.81059338
H        7.22373038      11.51881029      11.93735845      -0.15675003      -2.75048923      -0.08434286
H       11.92003639      12.33474107      10.48850849      -0.36951878       0.37267727       0.83044960
H       13.33003645       9.96643104       9.23435850       0.49229237       0.03804040       0.72275961
H       11.56290636       9.80569105       9.53447845       0.32565458      -0.38647006      -0.06269124
C        2.69320642       2.42650102       1.11178853      -0.35680537       1.12065796       1.52603160
C        2.84763635       3.92684104       1.01078842      -0.65714401       1.60743670       1.11493033
C        5.38894635       4.21241108       1.91637854      -2.01597898      -2.90984281      -0.51520624
C        6.05337035       3.83258112       0.59057846       0.06178954      -1.32858031      -1.18480195
C        8.68164639       0.44868112       2.04150757      -0.71302889       0.28253645       1.74718050
C       11.83745616       2.70306105       3.55620842       1.31950749      -0.46538075      -0.87676395
C        3.93695639       4.76394113       1.81882851       0.23394531      -0.09756785      -0.67870327
C        3.38283636       4.99638111       3.25012846      -1.42115422       2.00002158      -0.71120340
C        0.49445640       8.39716102       2.54058850       0.60309076      -0.12435100      -1.35072154
C        6.31508738       8.37785106       3.54488852      -0.15552222      -2.17563070       0.91634720
C        8.94016645       6.88890102       3.99615852       0.18245751       1.35057937       0.93875833
C        9.66834635       8.20568107       3.71295842       0.87002745      -1.36706544      -2.62841113
C        2.56171644      10.41679107       1.55963848      -1.93281661      -0.64418348      -0.25128012
C        1.02372633      10.73693103       1.86883849       1.38318984      -0.10077294      -1.37006493
C        0.66711643      11.89140108       0.88511854      -0.15124699      -0.27692614      -1.09933814
C        2.77270644       9.69959110       0.22732849       0.94971423       0.25796664       0.97641525
C        6.42954133      12.62914029       1.42194756       0.79503024      -0.19951987       0.43101610
C        8.45971635      11.22134022       1.32269749       0.58166973       1.60229228      -0.31186063
C        0.07979639       9.49682105       1.57983853      -0.29394827       0.28747075       2.46490915
C        5.22693644       1.71358104       5.92137851      -0.85417227      -0.08221740       0.37349367
C        5.88851338       0.91204102       7.03086842      -1.13362313       0.54410939       0.38593963
C        0.17372632       2.67403112       5.29340849      -1.09092718      -0.30808952       0.93743717
C       11.19881608       2.97007109       5.88546545       1.88955154      -0.52212189       0.51770611
C        3.31553636       5.97730912       7.44899844      -1.01960550       0.62343217       0.00038160
C        8.03667637       7.11100510       5.23361850      -0.93481763      -0.22682096       0.06710279
C        7.08725835       8.24510103       4.86922847      -0.75785141       1.89470605       0.25985214
C        7.29228337       5.84315304       5.48387643      -0.97965790      -2.34600010      -0.62404678
C       12.50891613       5.65556110       5.90504149       0.32783636      -1.11039497      -0.69657784
C       12.42245611       4.78170109       4.63524853      -1.43196923       0.65954443       0.04441157
C        3.56352643      12.21169022       5.48854843      -1.70363006      -2.09426297       0.35904236
C        4.37102635      11.96186028       6.67632151      -0.02425104       0.23414754       3.02608483
C        6.57723233      11.67750031       7.81559853      -1.10419603      -2.26245490       0.58791491
C        5.80504942      12.46695019       6.79046449      -0.06199280       1.69718025      -0.90618535
C       12.08707639      11.56102104       8.52309842       0.14752517       1.23939710      -2.29335580
C       12.32197638       9.25697113       7.62717852       0.91428438      -0.59888741      -0.23753375
C       10.57975640      11.59542113       8.14324842       0.09244146       0.45585930       0.18349138
C        3.48096634       3.93626107       8.64743843      -1.10689706      -1.56456071       1.81704079
C        8.03464634       0.11678103      12.82516848       1.71567711       0.15936696       0.82636420
C       11.59235638       4.60794109      11.84421846      -1.28480268       0.62685495      -0.91287348
C        3.08312639       6.16413109       9.86827843       2.75040288      -1.62778047       1.27236246
C        3.56164633       7.55744810      10.11656846       0.95819566       1.32739400       0.66949604
C        8.59631643       6.68219145      12.92557843       0.56208714       0.68352970       0.41806055
C        5.29826642       5.53770103       8.99325854      -0.01597967       0.05226418       0.09914831
C        8.59865638       5.95848108      11.62356844      -0.39211620       0.48200367       0.41557557
C        9.65857634       5.51082110       9.50483852      -0.74028264       1.71383378      -0.39973378
C        9.81960640       6.32565504      10.80349851       0.78468407       0.20027429       0.45252171
C       11.14547634       6.00242606      11.44421852       2.20405315       0.70856058       0.10759340
C        0.52557658      12.73048106       9.80990843      -0.61493472      -2.07682808       0.63803086
C        7.30750239      12.52423027      11.72947850       1.48603232       0.91582974      -1.39358308
C       12.35071634      10.08383115       8.80927847       0.11802868       1.21783692       1.73239323
C       12.40199639      12.62504112       9.57588847       1.11479167      -0.44182192      -0.08338979
N        7.91446633      12.61876032       1.17362750      -0.65851707       0.47157278      -1.65519803
N       12.28362614       3.33564104       4.89136849      -0.31479446      -2.05656139      -0.31975034
N        3.85303633       5.41831108       8.76681851      -1.39812239      -1.00676405      -1.13746228
Cl      11.98680632      12.35717104       4.48438851      -0.11841116      -0.15983108      -0.26132333
Cl       6.46790634       2.40173108      10.37078846       0.18364985       0.15029655      -0.33429718
Cl      11.18076637       1.03761110       0.04455853       0.09513953       1.06450348      -0.36202719
Cl       0.18150643       5.07974187       8.89611844      -0.33958540      -0.15849901       0.28333501
Cl       3.89957660      11.37475108      10.58152846       0.70896622       0.30540128       0.02318961
Cl       7.32691932       8.85244196      10.03415846      -0.27601601      -0.31203868      -0.19283396
O        2.72435640       1.76036113       2.20373853       0.71844399       0.45815332      -0.73477164
O        2.39510636       1.93273103      13.07306943      -0.22824393      -1.07917050      -0.02777857
O        3.63612631       4.10309111       4.07597843       0.48230988      -2.37803350       1.35622996
O        4.07577643       5.90932403       1.00843851      -1.56988401      -0.00626857      -0.60978614
O        2.65242643       5.98382213       3.58175852       0.55986051      -0.36525699      -0.58166481
O        1.55429636       7.73291407       2.09776852      -0.28542203       0.28693836       0.17638318
O        7.27905545       3.86454108       0.40860842      -0.66601362       0.35315053       0.49543305
O        5.25309632       7.52725309       3.46047847       0.31871861       0.72712351      -0.87252412
O        6.60301141       9.13182115       2.64285854       0.17555949       0.58822590      -0.57502371
O       13.34562620       8.15111110       3.60631849      -0.46251347      -0.00992547       0.50053363
O        9.61595639       6.91466203       0.49664747      -1.02901493      -0.69097360      -0.39919857
O       10.13173639       8.32538114       2.46458846       0.09699497      -0.22810677       0.46123170
O        1.05545643      11.19650112       3.20474850      -0.38986990       0.25560729       0.37291262
O        1.55761643      12.56035111       0.31022843      -1.33640438      -0.06936479       0.95142602
O        4.04818638       9.56257103      13.04168945       1.55664524      -0.83562152       0.39658413
O       12.77256614      11.90030113       0.62610849       1.14160502      -0.28854438       0.87186346
O        3.61043636       0.03793102       4.68056854      -0.12170425       1.05194890      -1.65782257
O        4.07488638       2.23204109       6.05023152       0.16640793      -0.09476915       0.54241731
O        5.72649636       1.73500113       4.73786854       1.61141698      -0.48603058      -0.77457490
O        0.06706644       6.67296989       5.80069545      -0.10586190       0.14593668      -0.62510730
O        6.19515140       5.53751105       5.00931848      -0.04697472       0.85284787      -0.23334121
O        8.70256638       7.42860204       6.47200051       0.34487211      -0.22350976      -1.33909288
O        7.94501633       4.86186104       6.12722942       0.35465969       0.84360252       0.58360922
O        0.03491662       8.51050106       7.58361851      -1.83536646       0.86677527      -0.32418074
O        2.62670641      11.21458023       5.46406546       0.03707032       0.45825212      -0.93845054
O        6.14701236      10.39950023       7.73910842       0.95132301      -0.63490951       0.81232679
O        6.57415132      12.21363024       5.59782448      -0.01141790       0.16952525      -0.74773845
O        7.42917834      12.02079026       8.61161850       0.45714401       1.21435263       0.18485163
O        9.88180637       9.07347104       4.53362848       0.03206200       0.75344573       0.91019620
O       12.86785645      12.12519115       7.43100846       0.01671525      -0.89249140       0.53054733
O       10.06929643      11.73258110       7.03214451       0.40526605      -0.01203068      -0.05198513
O       11.39166644       9.30112112       6.80207547       0.76601323      -0.97402222      -0.30663886
O        1.35720662       0.37693196       9.33517850       0.29785265       1.89857006      -0.93391133
O        5.19781636       3.26976110      12.77806945       0.54696184       0.58107315       1.35362712
O        5.99786139      13.00707024      11.53098844      -0.53806438      -0.39522475       0.84238883
O       10.91332636       3.95919115      12.73577844      -0.03186123      -0.88059728       0.15446728
O       12.59042644       4.06926108      11.31152846       0.94365055      -0.76141854      -0.31972338
O        7.38904237       7.17561209       0.10335749      -0.02696554      -0.82477680      -0.87108993
O        4.58567641       7.71857915      11.23885847      -2.43934647      -1.14119453      -0.45810605
O        8.51518637       5.78291011       8.80642853      -0.53452050       2.10005135       0.04026060
O       10.02796639       7.78292112      10.62460850      -0.77540893      -1.69713595      -0.25312671
O       10.43847642       4.71272102       9.07569844       0.80254534      -1.34081821      -0.13732001
O        1.90063640       9.29803106      12.61856947      -1.61229927      -0.64320133      -1.28711127
O        0.88715658      11.70278108      10.61287854      -0.24328136      -0.45779319       0.72736855
O        9.89858643      11.42683111       9.26131848      -0.78005655       0.10303342       0.87494904
197
Lattice="13.496549 0.0 0.0 0.0 13.14674 0.0 0.0 0.0 13.189999" Properties=species:S:1:pos:R:3:REF_forces:R:3 energy=-1147.37018367 REF_stress="-0.006468461158062107 -0.00034759057320529844 -0.0013765997090250388 -0.00034760058458593635 -0.0023376642758211443 0.0006199296239287628 -0.0013766545219581826 0.0006195023676630597 -0.005728349397220214" pretrained=F config_weight=10.0 head=target_head pbc="T T T"
Li      11.53025603       9.69383175       5.61113166      -0.28979831      -0.52062783       0.12976227
Co       4.08493596       2.27608176       3.58053772       0.93981635       0.14111203       1.63299137
H        1.03398600       1.40402166       1.08930771       0.09812089       1.43853209      -1.15473582
H        0.58420595       1.66232171       4.30437771      -0.07762391       0.20268121      -0.44983697
H        1.18470601       3.86527171       4.44850774       1.63474760      -0.05488922      -0.43279534
H        8.58231592       1.35463172       0.22083831       0.12274916      -0.75912954      -0.14598853
H        7.00040998      12.89898209       1.31161829      -0.24986906       0.10976408       0.10901526
H        9.00846595      12.93990211       2.06271832       0.73048090      -0.28537195      -0.16084988
H        5.92755001       1.82707167      12.91582772       0.20598182      -0.34924572       0.09256324
H       12.30328491       2.02783173       3.91993764      -0.24552209       0.05718350      -1.02464130
H       10.01453596       0.55260167      12.58394768      -1.37651835      -0.02822154       0.17128730
H       13.17103486       4.31868175       3.63646767       0.51406563      -0.08286776       1.51706051
H        1.73228597       4.86684167       1.10839773       0.91999999      -0.06238271      -0.23032644
H        1.65630593       7.23571470       2.52176776       0.32036567      -0.55919039       0.61303755
H        4.28050595       6.77997190       1.92466770       0.15618558       0.87185733      -0.41126111
H        5.74283597       4.35632166       2.67333773       0.78273614       0.59182275       0.80423966
H        5.70228599       4.89232176       0.86157775       0.57115429       0.53301299       0.49127598
H        6.82371236       8.32449172       1.14788832      -0.09693176       0.87459113       1.04595762
H        8.36652595       5.91894677       4.27938767      -0.73615175       0.22234616       0.38605328
H        5.33452595       7.12468877       4.06531768      -0.14278396      -0.00486105      -0.01940258
H       10.46706593       3.34397177       0.99312834       0.00773891       0.10976310       0.35882098
H       11.35235600       7.08459265       3.28974769      -0.75442719      -0.31035397       0.61040455
H        2.32937600      11.14799218       3.81595771       1.00556403      -0.29931217       0.54770675
H        2.90272600       9.96862176       2.02185768      -0.97530931       0.23387197      -0.53334800
H        2.86927601      11.42859174       1.04878777      -0.74345559      -0.67169019       0.10639850
H        0.11707595      11.10181176       3.51607766       0.25135598      -0.02574903      -0.57580909
H        6.94792501      11.17688214       1.05836832       0.48987686      -0.04858599      -0.27028349
H        5.05218598      12.00022214      13.00175766       0.55709760       0.17004006       0.14137794
H        9.04712600      11.18562210       1.80891833       0.97427679       0.15775169       0.08421161
H        8.53555591      10.18437213      12.60086768       0.62264784       1.17333850      -0.16509773
H       10.05119596      11.26515212      12.12719766      -1.61756764      -0.40098190       0.05332951
H       13.42483490       9.44292174       0.16746775      -0.05760798      -0.48095804       1.16249560
H       10.42699603      12.26540215       1.14020831       1.33805445      -0.07986453      -0.07198732
H       12.26335497       9.95037172       1.41264775       0.65177175      -0.42130463       0.43206952
H        1.41389604       2.83166170       6.43597645       1.33760067      -0.66089013      -0.72523183
H        3.66855595       3.98659167       7.96608774       0.23047478      -1.22325922       0.05195385
H        4.82003602       0.97382166       7.66744769       0.03650073       0.42991963       0.48655514
H        6.96440592       0.44429173       4.92144770      -0.58770579      -0.63723199       0.28941501
H        6.46816494       1.61216177       7.05667065      -0.29705346      -0.57982164       0.35088759
H        0.42315595       3.78253178       7.37890273      -0.93856408      -0.75330545      -0.34578094
H       11.62900488       3.76509171       6.84921372      -0.08469761       0.63717478       0.69493215
H        0.03935594       1.90099172       7.12647173       0.33547527       1.70526570      -0.34303238
H       12.79668486       1.13290169       5.31362766      -0.53426409      -0.94520356       0.74404411
H       11.25710491       4.26182170       5.09123768       0.86135234      -0.39545921       0.97725539
H       11.07064496       2.68465169       5.64853969      -0.67473983      -1.73131317      -0.02732572
H        2.33480593       5.10612168       7.87459768      -0.78361077       0.17167492       0.46836720
H        1.48861604       7.35384171       6.51028073       0.31225426       0.08669399      -0.21041878
H        2.07538593       6.22292071       4.97425768       1.83823264       0.33525963      -1.90220488
H        3.98562592       5.63423176       7.85694775       0.23576940       0.50906639       0.07436356
H        7.31445200       5.76262178       7.91560776       0.37048312       0.44201750      -0.53550452
H        8.98642595       5.73139169       5.91924372      -0.52994605       1.86407078      -1.11220037
H        6.35562100       9.12562174       5.43812464      -1.24249390       0.97413939       0.95756652
H        9.17334600       8.31162172       6.64887267      -0.43183062       0.11887266      -0.11881600
H       13.29533498       6.38148065       4.58351767       0.61215622      -0.28977081       0.76887950
H       13.22904492       5.66117167       6.25256766      -0.64819336      -0.02846776      -0.28300805
H        3.86049604      11.93827220       6.94578773       0.00359855      -0.23122538      -0.37043324
H        4.82434601      10.89443218       5.82208869       0.02902489       0.39229520       0.72663348
H        7.91678598       9.34436168       4.74672769      -0.01727420       0.21106816      -0.10775865
H        8.32079599       0.41785166       7.16115708      -0.19140269      -0.41213149       0.36059731
H       12.54887594      11.67669177       6.50435367       0.10233136       0.08196833       1.23224811
H        3.05677601       3.06301172       9.94054768      -0.32596612      -0.81199834       0.03503018
H        2.95725597       4.18503172      13.17663714      -0.10118905       0.26554558       0.38041303
H        1.47986596       3.93905174       9.90985772       0.62229411       0.45804193       0.31916985
H        2.52320601       3.82877175      11.40408773      -0.16805096       0.22674618       0.53273262
H        8.35099601       0.57248165      11.82045776      -0.26680898       0.22783842      -0.76253166
H        4.97348598       3.70079165      10.24467768       0.39014928      -0.32034135      -0.32043355
H        5.46417596       0.64143170      11.38378766      -0.50680151      -0.58132321      -0.44755607
H        4.73793598       7.37959775       9.10698773      -0.51834575      -0.49670707       0.82677834
H        3.57218600       8.48799168       9.71863768      -0.59459613      -0.65071167      -0.02942971
H        2.10884603       6.53116168       9.75426770      -0.47838958       0.79047942       0.08436396
H        2.79889597       6.39910478      11.37447776       0.10061320      -0.11655791       0.27105773
H        4.01741596       8.54572178      12.28066712       0.02223934       0.66513192       0.50347198
H        4.72216593       4.99677169      11.35429772       0.62837848       0.38863548       0.80255554
H        5.55097591       5.33863177       9.78353776       0.25417960       0.42342045      -0.27507830
H        7.09461104       7.04738567      11.26818773      -0.14199870      -0.49201312      -0.57532589
H        7.75941203       5.61705173      12.15173765      -0.02351697       0.39604329      -0.43915821
H        5.60787601       8.36818176      10.80477768      -0.48924434       0.06465228       0.59045989
H        8.71258596       8.52521168      10.32679769      -1.20775586       0.43360979      -0.37871333
H       11.06488598       5.59384169       9.09777768       1.54396993       0.56044995       0.57826200
H       12.32350598       4.81800166      10.97015772      -0.06966787       0.14243016       0.12632821