197
Lattice="13.528597 0.000000 0.000000 0.000000 13.177958 0.000000 0.000000 0.000000 13.221320" Properties=species:S:1:pos:R:3:forces:R:3 energy=-1147.97095477 stress="0.005186129158376495 0.0007431107310787693 0.002694780846224167 0.0007432911543830712 -0.00017901727954111962 0.0005279349973148728 0.0026951015099970182 0.0005279938547459299 -0.0035360342963756224" pbc="T T T"
Li	11.70663016849291	10.066320503355268	6.177613938240595	-0.24645173	-0.62116142	-0.24009034
Co	2.398180071870485	5.311420545642311	7.632787826364404	0.00898535	-1.19563463	-0.84341579
H	3.171120106146563	2.47369051751864	3.1537479103618935	-0.61308726	-0.21147415	0.11273383
H	1.0712700903996	3.470010565275363	2.5580778743237182	-0.34313937	0.70544998	-0.78350319
H	0.667730162752415	3.0770605913365245	4.090627949901605	-1.0974085	0.06838267	0.33019482
H	4.8480101634659105	1.421830515858368	2.429367929625825	0.21007848	-0.90162873	0.17064631
H	7.4537130998545775	2.5057705433298496	1.300398111479647	0.33232863	-0.15792368	-0.41177542
H	8.232150073765276	1.7016805327960256	3.509798052037293	-0.03647388	-0.19650294	-0.29509147
H	9.993280135726897	1.3042505802283104	0.46991809721466105	0.56942194	-0.7608384	-0.28516474
H	9.06097011426845	2.650860520688554	2.0055180668393984	0.25501321	0.02663899	-0.95753386
H	12.889127379901028	2.9139104859883425	2.737987908722453	0.80561788	0.43279958	0.81353816
H	1.3058801829036777	5.923813567357571	2.5697479366539313	0.00748729	-0.04871732	-0.26134781
H	4.120440174071323	5.289220562122	1.2436578921513923	-0.15404207	0.40797207	-1.7768542
H	0.37041015169957753	6.824954495085687	3.79330783618135	0.67822615	-0.43934862	-0.08756109
H	2.85656006247416	6.145806550022473	4.2344879405090055	-0.56686499	-1.02864672	0.4975518
H	6.956840191495478	7.526642546767254	0.0556481383144266	-1.22931589	-0.30256882	0.62623141
H	7.279255074017203	5.0145605521945695	4.394857921978482	0.64719056	-0.18867947	0.18704835
H	7.473713101599116	8.209700523772383	4.090837904459712	0.1299602	0.9308499	-0.09089781
H	5.434500152730267	8.394780596279817	1.6283578405108656	0.24927251	-1.09350693	-1.14987507
H	12.762847394590352	5.449860530015104	1.504717875309009	0.0182181	0.04689736	-0.79423322
H	11.323377319423908	4.926890496239107	2.4696778826502754	0.31894703	0.13080287	0.00318072
H	12.083747392851121	6.562880489361302	2.7152878281525776	0.055721	-0.47297777	-0.0051859
H	4.408260133563265	10.811540489978725	3.602647943309091	-0.69973032	0.63316498	-0.4361785
H	1.1209201775930726	9.164840506765753	2.7265478973564123	-0.2837769	0.7278943	0.05245661
H	0.35841015065285503	12.861620537391696	2.6741379246825034	0.44051351	-0.83094276	-0.19634875
H	0.0812201511641275	10.588600539246196	3.2887678621379894	-0.08319431	-0.32815206	-0.11108183
H	6.738529082386256	12.915768635362834	1.0570581343703735	-0.75623986	-0.42413425	0.53378129
H	8.429830072068247	12.32664867829434	2.402118128493256	0.59700058	-0.05844993	-0.83395986
H	8.778510185006958	10.932558686651436	1.2694180471843488	0.28276601	0.65854923	-0.01830445
H	10.113070182364801	12.145818629047286	1.6714281406789848	-0.63881711	-0.09256301	-0.08571474
H	0.6453028600892825	1.562110538517872	8.387237847955314	0.31370318	0.56637851	0.03102483
H	3.097500185631513	0.8311305216160799	6.606463839741422	-0.09293873	0.65314312	-0.34358744
H	8.656970079028794	0.465920544774384	7.796427836855068	0.03660992	0.5655299	0.56317138
H	6.519305063534603	0.6167605923617152	5.151757854124625	-0.23584097	-0.67957483	0.29744132
H	6.692830157305618	2.580100552320928	6.847931942396242	-0.03026038	-0.32848693	0.2384234
H	5.496010084702952	2.5901305597747775	5.590108860445756	0.40022135	0.50818119	-0.86129215
H	10.189390140319006	4.155240533331238	8.129887899341163	-0.05841526	-0.49311155	0.11276063
H	9.980090159266064	2.177850498026291	6.120532873288411	-0.12308681	0.816392	0.16891852
H	12.000310175169663	2.0490305548314787	7.81894784304954	-0.31128417	0.17853181	-0.3898768
H	12.729820165409901	1.1724905028062687	6.520230954593119	-0.12343128	-0.66155406	0.58604264
H	11.535517358897543	4.239260558457703	4.509177914441021	0.27453597	0.63936125	0.30405882
H	2.10320010228398	4.408800523899296	4.666567942645284	0.47090411	1.26486961	-0.14005175
H	1.66757007138785	6.966398526782397	5.8236338586031495	-0.21085853	1.64360375	-0.08001775
H	8.765800067890583	7.2008645785495995	4.4110278604958175	0.66639755	-0.875901	-0.1173993
H	4.824630176984432	8.36033051470792	5.435072888228322	0.32847948	0.33509767	-0.08299174
H	5.769050186985243	7.431531556781919	7.552307934091973	0.0083752	-1.13928841	0.43422678
H	7.392759057942896	8.17910051443314	7.726937902223367	0.20284895	-0.11301945	0.56834451
H	8.58562012184632	5.644120499900646	5.919137929820781	-0.25320326	-0.10469929	0.01501905
H	8.536420131083355	6.176161581121011	7.922737847586497	0.35814194	0.21891532	0.47028736
H	12.964597336090016	4.546150559359293	5.580602863737134	-0.37633812	0.45619443	-0.47095401
H	12.040307337653315	5.943072494193587	4.888497843355617	-0.42237504	1.13098757	0.19814452
H	13.48196742214259	8.655570541768887	6.943730849044969	0.31754724	0.8066117	-1.78709165
H	3.482050156604845	9.812170535603967	4.499337947194756	0.03358553	-1.13384933	-0.14570401
H	1.4539501386610374	12.347880477234511	4.615047897005766	0.04652411	-0.40002013	0.0048261
H	2.647480191698475	10.283440540681347	8.76045785656301	-0.34183221	0.20481814	0.88541861
H	3.854780192160853	12.685308682851952	5.7838169285932945	0.15034864	1.09873109	-0.32864803
H	5.596960071524536	11.471718632606198	7.814017877329974	-0.8708984	0.2578515	-0.30988868
H	8.856820064330666	10.50061052246855	6.627303945044646	-0.92293854	-0.04623272	-1.08159527
H	11.652710185435392	12.470448665336592	4.985647836672661	0.80772519	1.06578174	-0.31560163
H	3.8053500799586653	2.258820484755139	12.209977664098922	-0.11077206	0.09370738	0.33611713
H	0.0090429202598175	2.5958105232664193	12.373967907350558	-0.91296513	0.39880621	0.45405047
H	5.48814009382471	2.8618705977508414	8.956037666951804	-0.40584457	-0.12813746	0.01222948
H	5.36400006202704	2.840430587073005	12.800617649026796	-1.04692925	0.77074022	-0.38929727
H	6.67365918800056	0.2228705028934496	12.641937881077995	0.46168106	-0.34988936	-0.48432802
H	8.588640110610438	1.5400404896642303	12.694367950157968	-0.19749835	0.39039494	-0.60388923
H	10.006550066197475	0.1388604930151264	8.919447928887049	-0.33964142	-0.32963649	0.91432543
H	0.6934800889001476	5.713320593370342	12.20372768181252	-0.36321155	-0.21270493	0.13403057
H	3.9518800754910575	5.172370553589994	10.533187617183158	0.56091969	-0.19214512	0.29006799
H	3.8198701881011177	6.469651575348953	13.09959769944543	0.29010438	0.2889095	0.27875511
H	9.679200086684922	6.391419572970387	11.7455379529483	-0.34828749	0.34103715	0.2889944
H	11.045980061825311	5.308210526833603	11.258967867897125	-0.26277748	1.81868469	0.66515544
H	13.038290175744242	7.695373517362317	10.393687885626004	1.22418909	0.48844827	1.64414764
H	12.795520174522856	6.371229491616439	9.193627824301952	-0.1952331	0.96918078	0.55770943
H	10.27549019179718	8.335708686051667	13.087597897399904	1.02520144	-0.409502	0.3396705
H	1.577730174485885	9.243960571739331	12.024247869159426	-0.3331015	-1.00317326	-0.23313489
H	1.78977010233987	12.763700533862028	10.12019787867722	0.58511773	-0.69532127	1.13340111
H	2.6034900637364853	12.641570512866108	11.794187914489976	-0.02964582	0.53966081	0.51848741
H	3.5571100610111848	12.526950478400401	10.252527952944076	-0.79144974	-0.60096649	0.63273434
H	2.10906014946879	10.58202052121769	12.9795679478227	-0.1275387	0.27735033	-0.22897017
H	0.29882006191591753	12.092660591066696	11.898327887361509	-0.45754242	-1.24604328	0.10004663
H	3.433360058672233	9.10965055942881	11.487607852822205	0.97432619	0.32814609	-0.71304107
H	4.263170121922163	10.605020538573037	11.980847829275994	-0.04088737	0.33632165	0.14517732
H	4.295210169361282	10.263200514866273	10.165327928253866	-0.30417466	-0.69581554	1.51149459
H	1.5809701382412875	9.185720586004772	9.768877928579512	0.40376694	0.65055947	-0.2510187
H	1.02961012802795	10.8382905588649	9.414897848942067	-0.29467911	-0.03597054	-0.66520027
H	6.968519158929458	11.552428618222129	13.030407888772734	-0.11414034	1.20154732	0.25638994
H	8.657370119649475	12.51577860087892	11.410367844961861	0.66387686	1.22957405	0.0297867
H	13.05978738734644	10.784520536511074	12.952537885024874	0.96497	0.03850903	-1.04446451
H	10.249570075896044	8.97084053799313	9.550827956371817	0.43871896	-0.27746265	-0.45119696
H	12.729827335566444	11.233080571090447	10.324387941359541	-0.50148684	0.16268547	-0.51513867
H	9.340990161015906	11.257108600955616	12.177527917896878	0.28484046	0.15074043	0.99840012
H	10.376490099142615	12.775018686718198	12.32122793053494	-1.08437742	-0.25260408	-0.65943337
C	4.05875017646924	2.546960491561763	1.1285179134360976	-0.5956345	0.30668391	-2.16736576
C	0.18868009898241003	3.523740526636624	3.2044178251395565	-0.31495781	-1.02724007	-0.80004793
C	8.34708010712709	1.9106405149198078	1.5959981314965244	-0.78304794	1.48083862	-0.22144493
C	8.929370143375186	1.1064105544711742	0.396028107360175	-0.03317504	0.98226468	1.59812069
C	0.8507800654172925	5.841196599427884	3.559607919963267	0.38583217	1.38876729	0.36208425
C	4.374740057584995	5.5624805457830115	0.12323790486734701	-3.21031078	-1.38972957	1.81553054
C	5.813643149240693	5.771450543154934	0.2337279454160158	-2.040324	5.11184766	-0.9818945
C	12.266807306677963	5.500910490041635	2.4571779180774724	0.24056366	-0.30490369	-0.33945094
C	3.87931010940858	9.207250602136295	2.3948679533654973	-0.37241011	-0.52087017	0.8556941
C	2.1487301904709373	10.898570492510242	3.4587678562956254	1.75213156	0.39678355	-2.00330698
C	2.097850083215495	11.856600533490138	2.1605278608436675	0.81160187	0.42962082	0.03989161
C	3.50261010698956	10.180650490963634	3.476177954608325	1.00317416	0.59704172	0.31399762
C	0.975340160159575	9.980330505275424	3.485057921825364	-0.99117867	-1.06873262	-0.68384982
C	7.114149096886808	12.643938591933084	0.0841481474453924	0.44319567	-0.63398331	0.52388513
C	9.017570103718507	12.003708583349212	1.5035780653307749	0.11700835	-0.50626147	0.42881442
C	3.943400080162813	1.3403104811592608	4.523487877691706	1.24061688	-3.12045238	1.8711669
C	3.9331100938084904	0.6325805992571744	5.918867950470873	0.47125898	-0.81872415	-0.05643328
C	4.7934701647964255	3.4136705775367777	7.283972919725413	0.06608057	-0.84922457	0.55516936
C	5.6361501178962525	2.354830606820272	6.62814389549027	0.77586314	0.91659964	-0.74600794
C	5.314880160559795	0.8694605893854721	6.641185934174054	-1.00184083	0.23101763	-0.02810057
C	5.206530166328435	0.39920054301534397	8.070477898909735	1.51190015	-1.91087019	0.98293196
C	9.68199008929579	2.267200480077792	8.772067894101422	-0.59778843	-0.60960274	-2.0997629
C	9.638020118943704	0.8241904817728287	8.17612787871334	0.39010188	0.34998242	-0.28282683
C	12.676620174298028	0.3368805296796352	8.612777830031575	2.23397875	-0.99874526	-0.62060684
C	12.086290092704258	1.0186404778138847	7.424707919189611	-1.05828276	0.6856449	-0.04027488
C	10.60300007932923	0.5734905034468736	7.014030853939591	0.3329379	1.93965472	0.39468538
C	1.9664101556276976	5.5305005406736285	4.572897932907534	-0.68031095	-0.30482579	-0.01646135
C	8.135930090400212	7.903280580635507	4.913937910236699	-1.55977604	-0.19522242	-0.34807023
C	6.095631065744133	6.514709517836509	5.003747955664679	0.28671025	-1.10723469	0.6913282
C	7.180608060305488	7.172154551958188	5.886176915182846	1.40295479	-1.40526962	0.03024021
C	6.595702134493132	7.9194704928142725	7.050279878593615	-0.72060677	1.6675882	-0.58309451
C	12.366567318085437	4.950330525614746	4.72440791135284	1.23087229	-2.82288157	0.30466114
C	12.506370083349294	8.383460598509517	8.494737887035736	-0.57790709	-0.59020706	-1.96961837
C	0.8104101900794025	9.221100504298793	4.781357953026003	2.8424741	-0.96124497	-0.27996849
C	8.951940172739306	9.003820486561622	5.474389920137295	-0.50216714	0.22384457	-1.31035442
C	5.882687157021903	9.236770546031304	6.773418831740525	0.42911713	0.99232663	1.05938506
C	10.482900092528325	12.328578590255155	6.615558917831281	1.05979342	-0.98492363	-0.06182712
C	4.240810191673335	3.0126705843456096	12.895337695981475	1.02358852	-0.07895055	-0.09883238
C	2.23585016289579	4.444290478143286	12.194727665011879	-0.89409096	-1.67802206	0.21776366
C	3.8167001671934977	4.4677705685114875	12.344547694362904	0.23637859	-1.66275153	3.7884961
C	10.729030191448695	6.418376535798416	11.47404793504264	1.61705565	-1.84368874	-0.08365701
C	10.888650187108244	7.182815520044909	10.163647895149422	1.20389174	-0.4624323	-1.9689625
C	12.424180067048313	7.347306482627731	9.629797841712175	-2.35220836	-0.59675603	-1.72197791
C	11.685370113200507	7.054619553165184	12.49467789587597	-0.74494879	0.08569706	0.39242798
C	10.204130088166771	6.270051501510653	9.096547903979742	-1.87271034	0.9912675	-0.13242991
C	1.5835201435369402	10.310510570389702	12.049107916741761	-2.30610041	2.02652371	0.49024279
C	2.5823000865778374	12.278840495955487	10.781557909829127	0.23059711	0.58038691	-1.52741898
C	0.125210143840145	10.960120517755337	11.9848679037683	0.56559361	0.0679111	0.7980068
C	3.729210187633858	10.136390605617404	11.156767859276913	0.61952784	-0.47238158	-1.34038703
C	1.9083701735636651	10.24150050307552	9.604977854728775	-0.43415616	-0.95861818	-0.69711983
C	9.326650118502851	12.365148609943382	12.277547863098567	0.43861054	-1.21271466	-0.37870121
N	13.23781736871573	4.914360498357901	3.457517912723624	-1.13715901	0.18552815	1.21312298
N	8.615040085856032	12.831358674456785	0.2982281539627458	-0.36457804	-0.42832091	-0.65288432
N	2.4064001828455575	10.78164049377269	10.886857921298157	1.41074817	0.0726311	0.15226628
Cl	9.073830128242355	4.1982923952602755	4.319717856338797	-0.35615364	0.11265418	0.13501863
Cl	13.096450156465883	0.4053624244339712	4.213577894424144	0.07332408	-0.10730032	-0.19417862
Cl	0.9473701912031175	3.499282499999305	7.8220679423044235	0.20703071	0.47218642	0.01215333
Cl	12.274680138561628	2.586620478860589	12.891287609093267	0.95099751	-0.14982989	-0.45493902
Cl	3.2034500714247502	6.709169924464448	9.113237837004027	0.08429712	0.16877917	0.17478639
Cl	8.21355285226959	8.829992413560797	13.098317875690725	0.78246748	0.23718073	-0.05404351
O	3.242370086995358	3.0674605806548256	1.9339678539463787	0.37296775	0.04089508	0.36510185
O	2.9255200576664477	1.9800805790061407	4.142367866089064	-0.72814172	1.47389163	-0.88971653
O	4.807380133202902	1.510500515272941	1.378897846688628	0.02680788	0.69340352	0.55036143
O	4.964660087396117	1.063410481917392	3.8231578742750516	-0.38256508	0.90242145	-0.07515033
O	7.972710135012438	1.173650558456051	2.7211280817389967	-0.22030269	-0.99947261	1.50723946
O	3.0773501517434725	8.62213055068382	1.6705379492181973	0.13647539	0.1040578	-0.4122404
O	6.7018441263673205	5.015300494540761	0.25558794332707	3.26627875	-2.91909323	0.18975054
O	5.95807215362016	7.199770544469799	0.29043788792197417	1.34405749	-1.14195047	-0.32468811
O	11.281810163229393	8.059960572125572	0.0596281522078	-1.71880401	0.06105239	-0.73444219
O	0.8667900779748876	12.3601305752861	1.901677953500476	0.41309526	0.72402071	-0.34850728
O	3.0993901306673375	12.120590482539773	1.4468279300126854	-2.08356487	-0.79709485	1.13110664
O	5.2210701615088455	8.967910550793622	2.3735479141542584	-0.65618348	1.19407191	0.90983301
O	3.9974101636780155	4.074320491063514	6.607495895963448	-0.74560984	0.94280088	0.34447084
O	4.9470700699656955	3.621200487649719	8.579667943332916	0.05466884	0.26653843	-0.12431261
O	6.356922122458688	0.1215905153921248	5.998156866257522	0.11378367	0.79089301	0.0916877
O	9.935260175986793	3.1940405345352	7.803327911435053	-0.08158471	-0.46227856	0.16712056
O	10.187270073843958	1.2742605785685888	5.847207868410482	0.28380997	-0.60875795	-0.65613095
O	1.8273001898290127	8.46579055051222	5.107257932648695	-1.71301602	0.6097613	0.09739746
O	1.5273500841848027	5.995933500999053	5.905500931746897	0.74292841	-0.99642089	-0.21239027
O	0.121602878669405	8.214230578641965	7.795687839586981	-0.35204832	-0.53496749	2.18094552
O	6.329871151113423	5.352630524370506	4.440307927493803	-0.52761754	0.19061177	-0.44531036
O	4.971990151958113	7.010843562439651	4.8971978684104505	-0.45427432	0.19191841	-0.15096258
O	8.030970092067754	6.153359496696026	6.582049879488465	-0.73011614	-0.28278316	-1.17157163
O	10.852650183968075	5.365710570221971	8.568437886524983	0.15116178	-0.31463081	-0.35610995
O	2.1685301042621474	11.653650490928321	4.631597948466777	-0.26351304	1.64323836	0.91654032
O	5.0017001690928655	12.28285858715366	8.248147845098142	0.0333284	-0.53431378	0.00149544
O	6.111788134153835	10.169830596702472	7.585567882770135	-0.31905622	-0.25376944	-0.29045392
O	8.193140093022954	9.952930499496746	5.9985668593839	1.63815203	0.60274741	1.36975634
O	4.992170084046076	9.319230564480256	5.827412908435866	-0.10522231	-0.07908608	0.27348988
O	11.616550138989757	9.137520491192621	7.9861078977184325	0.92350294	-0.96557957	1.53955605
O	13.260667440042926	9.309610523302274	5.412837933688307	-1.04508058	0.02848378	1.04701013
O	11.214090063975068	11.85762867777954	5.626032905059587	0.0843178	-0.52939116	-0.86692399
O	9.872250193151029	11.46043856404888	7.2164968565226	-1.33008693	-0.16876144	1.49795571
O	10.165500125721202	9.046720538413577	5.298757908179775	0.68593917	-0.01587672	0.57494789
O	1.576480132099985	3.3893605393686976	11.991197610612975	1.36601655	1.1325358	0.05406499
O	0.4364828736667701	0.7757505481236224	8.94662792145118	-1.89059921	-0.9239954	-0.02131037
O	5.43021009925632	1.0909705998867423	9.074917824819662	-0.38764889	0.77985834	-0.30365871
O	9.426430152234254	2.5095105796125345	9.922507945651539	0.00503892	0.30512608	1.25422667
O	1.6704900838182901	5.616800484327514	12.349487708285503	0.8099869	0.93071104	-0.05432575
O	4.470510079805525	4.60789047898032	11.176897715281557	0.14472389	0.39641356	-2.88841651
O	8.900000099889326	6.539883502936314	8.833447871180072	1.72420836	-0.09033854	0.72261958
O	12.854420169514071	6.691662216477683	12.599407936249284	0.54470976	-0.35559072	-0.0820436
O	10.316780147034043	8.402400486980415	10.335897893507218	-1.17373064	1.23289141	1.05653686
O	12.903807396062975	10.437950517814377	10.859917895688035	0.4849767	0.39325105	1.05933946
O	12.198620064960595	12.533408600316665	9.180347934075327	0.07139681	0.52779719	0.16182883
197
Lattice="13.337209 0.000000 0.000000 0.000000 12.991530 0.000000 0.000000 0.000000 13.034278" Properties=species:S:1:pos:R:3:forces:R:3 energy=-1149.14990169 stress="0.005675187961149908 -0.0010372833297056683 -0.004833324659383271 -0.001037804464510134 -0.0066821474555372575 0.0029745905714317115 -0.0048330096316931605 0.0029744955007647055 0.002843904736123834" pbc="T T T"
Li	10.99066583591207	9.613926590289548	6.298833893011049	0.42696319	0.43823235	-0.06745207
Co	2.6921758683525048	5.066796494450784	7.0053422200701085	-0.73521982	-0.89455451	0.01284652
H	2.48849588484707	0.466406581849641	0.6241172200909356	-0.60172803	0.92681261	0.58346839
H	1.183515895449246	3.220076480903384	2.8975172007717718	0.11451282	0.02063802	-0.14094234
H	3.6967258948357107	1.7801764872241963	2.73054718322119	-0.1973232	-0.04943005	0.6929308
H	5.663735850972082	3.4303764838418576	0.355227097065923	0.44712244	-0.40143398	0.2193978
H	7.399182921639087	1.818196589661423	1.5744388917916157	0.71902603	-0.1314499	-0.29479463
H	4.886115897130315	4.56034650927393	1.5501671104366492	0.0865174	-0.40711013	-1.41655118
H	8.895895823069317	2.78432653217393	1.738648900910055	-0.87052184	-0.45924142	-1.08774483
H	10.241825844694088	0.963106553639271	0.4649987911087317	-0.22076346	0.45384895	-0.46388063
H	12.11050456195306	2.3741365094107474	3.729887126047853	0.04662471	-0.43499009	-0.1983356
H	12.838324578708454	2.826496519055028	2.0217371329553675	-1.63298751	-0.11612152	1.48954854
H	11.125684668475198	3.2934265296503837	2.553237203030068	-0.58838667	0.30517906	-0.07954342
H	9.853905926398468	0.866916485657268	2.0999288561375757	-0.3527604	-0.59845482	0.57342397
H	1.9006758813750195	5.590796477741582	3.134327097334646	0.79379222	0.18406935	0.83579406
H	3.013595930382135	4.46571646422033	4.033357189429296	-0.32715099	-0.31509243	-0.46368416
H	6.972948803679809	5.329086522004549	3.578097220045447	0.12574978	-0.45472625	-0.02902171
H	8.071845844673511	7.435492540822493	3.557407128027285	0.74936887	-0.41043939	-0.10163589
H	9.321765835229995	8.354766581480167	12.930007211746794	-1.38795867	0.06249207	-0.46991445
H	7.15457891346375	8.754226509829154	3.978157151129229	-0.46436039	0.96741873	0.07298828
H	13.32951463764998	5.035406489459274	1.579787116867775	-0.33711859	0.70394893	0.55931778
H	13.297324617495553	6.312533524497204	2.8952972024900125	0.55853521	0.67835147	0.3818602
H	11.784814592545318	5.6775365067652155	2.2836571756541075	-0.22373788	0.17260232	-0.37466175
H	0.8331658271975072	9.299966519505622	2.553637094688619	0.00015846	-0.09288512	0.10475138
H	3.6097058093186196	11.387056471614624	3.9670771021662476	-0.03528724	-0.45570829	0.26725901
H	3.0907458145711892	9.782316566863223	4.535447104953662	0.12880041	-0.51382802	0.39708019
H	6.973520836562666	12.61063657707607	1.7650388828331796	0.19675564	-0.53786772	0.35363588
H	5.499315808602061	9.443246466798659	1.8296570996117032	-0.98622657	0.73507393	0.50814842
H	7.671565934922272	10.917596620372633	1.6473987860029733	-0.28900211	0.11495021	-0.31394357
H	12.737524622493282	12.360896497465905	2.6149472116320647	0.6638939	0.12864192	-0.05315286
H	8.240775864178962	11.989146593306465	2.911938847665088	0.44822804	0.55426912	-0.56519395
H	9.592695892993044	10.553636567546473	0.5750988186221693	0.091247	-0.11907102	-0.6544098
H	10.56892582380982	11.523116635912974	1.6049288059571507	-0.01956329	0.44026245	0.28557919
H	12.905074641010406	10.38694653267984	3.2553171340333056	0.26750116	-0.26225904	-0.12315434
H	0.8973858210014812	3.2705965138935182	4.651657211110479	-0.55895438	-0.93590071	0.54157971
H	1.0553571895736247	1.4883565819514804	8.075877215824956	0.32892921	-0.84243912	-0.25725254
H	3.569115881727653	1.0811165459167515	6.198897213667051	-0.77758837	0.46890159	0.31051554
H	6.997503805318935	2.754056526988031	7.346507155638505	0.5291716	-0.34235592	1.0829851
H	6.352711914132663	2.8678964979500625	5.778455190561573	-0.49198203	-0.25746751	0.83806813
H	6.735164910565756	0.528286538630796	5.056487166684588	-0.1218054	-0.0125522	0.39051656
H	8.839035834536425	1.088336588742039	6.597438129956585	-0.64101169	-0.25475753	-0.12723102
H	11.214564627751082	5.505586591127238	4.272277205307776	-0.26536342	-0.07575343	0.11875277
H	11.697054558687332	4.097646540862854	5.272417192137107	-0.15515579	-0.19883773	0.52757572
H	12.042215919250863	2.213496500173098	8.103817103781923	0.19383262	-0.15574361	-0.46289179
H	12.320035845676907	1.409956465643445	6.493508138766753	-0.76878643	-0.05191838	0.6144056
H	1.536585820679333	6.511903493374011	5.113697090700057	-0.44871587	0.96331477	-0.08166663
H	4.046385895907242	8.327616492235776	6.887218160486252	0.22484852	-0.1229634	-0.19518015
H	5.767363828928484	7.301654577739196	7.244166173317444	0.53882879	-0.32590611	-0.5388988
H	7.399961814629504	8.065386485550842	7.20023413827359	-0.8484793	0.14954234	-0.27212942
H	8.132075879110827	5.4386265563506315	5.089157194240254	0.06201698	0.2210115	0.20595515
H	9.123365919292638	6.206535500903954	7.07650520867365	-0.07889888	0.26040003	1.02869162
H	13.248574585481194	8.328016501446015	6.927210193882561	0.22133318	0.89091307	-1.10905946
H	12.728624569728991	5.593936530554667	5.1977872158458895	0.17801791	0.11387475	0.3098986
H	2.386555864028803	11.363756552215852	9.010367192404743	0.01842803	0.91499335	-0.83049316
H	2.8283158266823167	9.67873652684288	8.743267197162826	-0.62393366	-0.56373625	-0.21940199
H	0.4747858256796766	11.535386486468697	5.288137183492883	0.65431096	-0.47914428	-0.79397032
H	4.459465925002522	12.598196537476692	5.741965207061595	-0.22705428	0.44923035	0.29802442
H	6.14021390169669	11.648136597974833	7.362787099590478	-0.76358588	1.02232027	1.39328121
H	7.918865926472313	10.107656568394447	5.915743158516273	0.64178981	-0.3741947	-0.21683154
H	10.983385853893429	12.250746510783975	5.557461217642835	0.42834264	1.30321981	-1.21793326
H	2.3573959243280167	3.3603565539925744	11.676995447878742	1.63572963	-0.06067373	0.46474352
H	4.066975878760054	2.5772064660457947	11.586805410826612	-0.68485903	0.49447802	0.21316859
H	8.806865820195108	4.022616557365089	9.455987139893299	-0.19525102	-0.16326204	-0.1758872
H	8.105825851612934	3.470506540674504	12.567727136344548	-0.22304455	-1.38280958	1.28474187
H	7.496189909060691	0.34221651872737546	12.441727114091872	-0.21588031	0.7003753	-0.43702856
H	4.904495904494909	2.656196527733401	9.056475430555235	0.8856932	-1.06334208	0.40516935
H	8.884845812256138	0.624026580011867	9.276047103024785	-0.24581728	-0.32130621	-0.23504954
H	11.841485859574542	2.1628265449261868	11.468637165039285	0.30261542	-0.10147424	0.21213335
H	10.529625871048188	0.3724265030444435	9.926647109100415	-0.18183516	0.40046487	-0.49824014
H	1.9261458155337106	6.854372567445558	12.100805528499524	0.19145994	-0.23375264	-0.29614317
H	1.1919758203251152	9.093546566931883	9.939117133502373	0.2791194	0.50267513	0.5602653
H	4.218495906092572	5.453256578170538	10.689535467674945	-0.52917052	-0.07440288	0.19751452
H	1.4827359067869712	10.130426563282482	12.734117128510334	-0.82671829	-0.47551392	0.82958903
H	8.9669558043756	6.544480534466189	11.58141717051604	-0.02683657	0.28311103	0.61860324
H	6.559476927391747	7.278379472162817	0.7211888347196126	0.31440312	0.8733622	-0.2925021
H	0.12819591668800598	7.695726528830545	12.741067136048008	0.17239119	0.91240839	-0.31720961
H	10.161375934946495	5.386746569994863	11.547947098957707	0.84231262	-0.4841017	-0.34625976
H	11.865395873799002	5.971652535058968	9.384807206727956	0.57466153	0.87914071	0.34989053
H	12.52887586187176	7.39873352620722	10.402737158651474	-0.64569969	-0.46255667	-0.96771413
H	3.6800558510036727	8.421256582699565	10.64988714819767	-0.23085705	0.23447557	0.37602675
H	0.749715845715939	10.756796555484767	10.378847151308207	-0.30381399	1.18262451	-0.76349541
H	3.4126858943695915	12.405696489690325	11.06977716961672	-0.08563824	-0.71776085	0.53841044
H	3.3746559106241807	11.329566482752666	12.567697157504433	0.10895792	-0.14471604	0.1980081
H	1.8847159105362987	11.879116518446898	11.729717148500946	-1.04421515	0.68494018	0.53470707
H	3.4583858401172014	9.185036559172396	12.279727197203677	0.14949157	-0.29068602	0.60327418
H	4.154335929727929	10.648586464069902	9.07045717055559	-0.82860731	0.96984713	0.33154303
H	13.098714640520543	9.857846464437314	12.11531711191318	-0.32678429	0.29602779	0.42948069
H	7.425785851680241	11.575656591995283	12.506237146360423	0.02946123	-0.54124719	-0.04238034
H	8.894195862443315	12.339626634552745	11.784537107245491	-0.50228922	0.26207736	-0.43961166
H	4.792935888384568	9.654136545032001	11.158337139823402	-0.15892531	0.49223928	0.24108055
H	10.00254591687567	9.066726462550761	9.6797571534065	0.26206455	0.10467514	-0.44471037
H	10.648855849160729	11.915466559696196	12.905147193411697	-0.13729592	-0.22663598	-0.1402876
C	3.1166558766182995	2.3335065385017764	0.38900712376246827	0.65463209	-0.41268465	-1.31544954
C	0.9014159253664469	3.841386531981796	3.7442372147532477	0.49795411	1.22611293	1.35886754
C	4.764475885398457	1.1385865278224339	4.307987217593683	0.05021711	-0.09029789	1.60783671
C	5.2205558757040205	4.412086518766827	0.4664071448801272	1.47655531	-0.54289256	2.1472721
C	8.376725900656318	2.019556471195989	1.0404088682969437	0.70214873	1.24410515	1.64828594
C	12.120184574684465	3.091406548473977	2.911697192145221	1.93515218	0.60475493	-1.1970884
C	9.374045826281572	0.861836537577117	1.1266088520728161	-0.63778654	0.4225701	-0.78733118
C	2.00651583540095	4.908796494034595	4.011377094886793	-0.74490926	0.29335923	-1.24052362
C	6.32687787417537	5.440486553707891	0.2981871400396165	-0.17946573	-1.73554135	-0.38591008
C	7.817295879824494	8.033226472573268	4.425897123984907	0.56817858	0.19024709	0.13743275
C	12.82283461110573	5.44280658114422	2.4980671435701147	-0.21854051	-1.20977968	-2.00034682
C	3.6412459072911463	9.969706526219724	2.4599271507788742	1.8923502	-0.18921751	1.92194354
C	1.5603858029316882	11.017216582203137	3.612647181561764	0.49184133	0.80356371	-0.38911613
C	1.4419559239714597	12.108406500690057	2.3791472109526492	-0.43349703	-0.66212745	1.21576307
C	3.0175058664963528	10.47984649567668	3.7201771100780356	-0.34375705	2.26018441	-0.59208646
C	0.5626458886032132	9.911686482931724	3.420827182070384	-1.22270518	0.19056768	-0.21918058
C	7.876195927806256	11.972276571875339	1.8664888418889687	-0.64593001	0.2926782	0.14376861
C	10.00068590974479	11.559976594716735	0.6780988140545836	-0.42418675	-0.49064994	0.37343286
C	4.961615835226144	3.339016536817144	7.266511097309844	-1.32565311	1.89822705	0.8085325
C	4.507175921479337	0.7210165364990485	5.8413661775670525	1.01593348	-0.96738221	-2.21755522
C	6.085915857590664	2.52358652407043	6.831832123034702	0.10442654	-0.0015914	-3.13039169
C	5.741579803503966	1.010496537294459	6.663516185905829	1.00689408	0.45712643	1.65157377
C	5.611065879936948	0.446886548118915	8.13736720580908	-0.29882745	-0.94240249	0.21962982
C	12.931745857560308	0.23506653616459153	8.224377139639136	-0.13676013	0.03610699	0.22465885
C	11.945935809705588	1.2579864838999641	7.542307172011844	0.30824707	-0.57330834	0.78356308
C	10.436735813220448	0.8290065513948655	7.7304571097594765	-0.40117591	-1.77709583	0.34952157
C	5.840618848049195	6.703646005043163	4.359397148446768	-0.27125822	0.61550828	1.49805203
C	7.005395831846655	7.124301484753423	5.375897109696896	-0.12483797	-0.09382889	-1.27529081
C	6.469512919789475	7.8672265477828915	6.590138152046287	0.02192612	1.07645456	1.06256222
C	12.078485924930941	7.871776571352303	8.297297148958863	0.83019091	-0.1855346	2.21272743
C	12.044804671467297	4.931776561963538	4.6829970905646086	0.48042833	-0.62216286	-0.77120551