170
Lattice="12.422452 0.000000 0.000000 0.000000 12.424883 0.000000 0.000000 0.000000 12.404038" Properties=species:S:1:pos:R:3:REF_forces:R:3 REF_energy=-826.27989463 REF_stress="-0.0027089083897834394 0.0012503656737917618 -0.00021602242568436808 0.001249586802109452 -0.002889843416694051 0.00060655739035485 -0.0002166058632329283 0.0006064992694218697 -0.0006575643573390483" pbc="T T T"
Li	6.935226988440166	1.5191466102489688	7.516646403010608	0.5368252	-0.23746026	0.19323339
Co	6.571056970094036	6.963276551887308	4.655216374385304	-0.01624079	-0.55394839	0.26221942
H	2.479296941500721	1.7844166242941477	1.6486163106229015	0.82248688	-1.51403802	0.03068528
H	3.6426070224558456	0.5443806024933054	1.599686351149019	-0.39556451	0.70706766	-0.17025943
H	6.868386991765618	2.1391066590692156	2.1892063532118256	0.16455801	0.41099553	0.65035763
H	5.900816989761275	0.5697433923410463	1.3030163763910296	0.21581325	0.05076099	0.08481401
H	6.444137026663416	3.085156649496423	0.41294033859606805	-0.52722514	-0.28935826	-0.64450286
H	8.152816973321901	1.769526644255284	1.2783363106401968	-0.54467172	0.13038406	-0.00222198
H	6.257957018307404	3.8482434009706155	3.661756403488805	0.13454689	-0.10278426	0.16180493
H	10.260297007711163	3.808926597536219	0.1481767738780035	0.80775532	0.279004	-0.16438898
H	12.308827911148093	3.577196561725779	3.2706585829770303	0.18020828	-0.23644884	0.27343674
H	11.248709026973993	2.6667465951695273	2.666158596692988	-0.49328931	-0.43291442	-0.04345349
H	0.8889639557124186	5.503916615912377	0.5570586353757366	0.72890695	-0.21511215	1.83070043
H	3.4683669780449304	4.934266658693071	1.9274585821821935	-0.04335345	0.06028745	-0.20481375
H	1.9074369422971293	6.2002465821293855	3.5634864070543473	0.29254142	-0.26328094	0.04020287
H	3.7496069430139376	7.037776648609796	0.6974586978114556	0.42120265	0.69411343	-0.81455317
H	3.0336469977404246	8.263066570519346	3.8471586868575356	0.05970824	0.37200582	0.11677735
H	4.479836931550436	4.773676658438638	0.7248585969109601	0.34498268	-0.66497449	-0.32068572
H	5.64119693599374	5.446926658600078	2.5848464082926252	-1.97591215	0.2345922	-1.09074486
H	7.1760769657149615	5.504606569677029	2.5726663875036677	-0.70039098	0.22639615	0.89419006
H	7.9881369995057545	8.144376631167502	0.691639343519809	-0.13773207	-0.23077663	0.12496515
H	10.047517051379417	5.309176575657595	0.1935918011860036	-1.35610764	1.5518573	0.94551856
H	9.652218977086322	5.756186598903765	2.989366389929637	0.12303121	0.36662808	0.52674343
H	10.720248975579366	4.905926618330549	3.7573663540363538	-0.72545424	0.31131281	0.5014246
H	11.570096990272642	7.134686637436338	3.9856863598009302	-0.70372099	-0.76850998	0.03947489
H	2.9319069917997043	8.28883664803871	0.08635864710229942	0.51864062	-0.12235773	-0.4334608
H	1.0482450076735381	11.280726657212261	3.09128639850064	-1.13120233	0.33734191	-0.3910241
H	0.8596239875034557	9.079999783853708	0.4044823974027503	-0.45744831	-0.23433151	0.68886938
H	2.3607450101728684	12.11592656109547	2.940826413401356	-0.83570048	-1.20055819	-0.04916736
H	3.0213070308415717	9.885766630398411	3.701958633949178	-0.86639974	0.86987438	-0.5244267
H	5.366926960381671	11.575026665384613	0.8701534166674223	-0.4771656	0.22039438	0.10611155
H	6.441406944391771	11.155769855266955	2.3923586905031886	0.07427288	-0.16987387	-0.0239704
H	6.454887043933349	9.113946552764741	3.309916370006164	0.81498294	1.51674108	-0.80757004
H	7.577487010606736	11.027719754397689	3.4530585930584325	-0.10460566	-0.51562026	0.23132062
H	7.703577010020573	9.53922657351611	1.3783263749839008	-0.34771613	0.00054157	0.15845794
H	4.967746994069347	8.863226573953801	3.896366372735745	-1.12373576	0.30638719	-0.02803298
H	9.313878963142205	9.810866576685392	0.20023627206611933	1.56323332	-0.82508579	-1.83280486
H	11.606188933806294	12.306926587255209	2.056956363753462	-0.45173581	0.7580051	-0.45129624
H	11.741897016665646	8.393936622881956	3.1312063130627323	0.15743764	0.4745519	-1.24452782
H	11.938196975527166	10.15425655292746	1.9403863183643093	0.05697104	-0.83429235	-0.67275007
H	11.314696967667233	9.142896654892875	0.8129823385793925	0.68046991	0.45209348	0.91368871
H	11.41243893166271	11.59822665581199	3.4567263429689024	-0.24182046	0.43990733	0.06291557
H	2.347845039138757	2.626326586354916	7.4733363409019935	-0.73075899	-0.56159118	0.44281012
H	3.2887270179828287	0.9024685943286438	6.0470263104811055	-0.13865039	-0.11228751	0.033102
H	2.8541450511198203	3.4912265583168107	6.32159638337232	0.22050557	1.14863839	-0.53152485
H	6.347336932977063	2.4760433994696744	4.529596343082936	0.08005931	-0.08043204	-0.04965709
H	5.370986990362295	0.8286066396078209	5.667236382866899	1.80178631	-0.41962947	0.10148754
H	4.699245011360632	2.8208366420214803	7.5921563546913635	0.87262037	-0.20550104	0.18097262
H	6.928306937340188	0.23582838353725932	5.499386309019327	0.06962511	-0.62978134	-0.7186422
H	8.94773700476877	3.5010465647618343	6.545586387653088	0.04271983	0.14096646	-0.3781216
H	12.041096990033775	1.872556633555742	6.840556389042923	0.22886675	0.13287299	0.10641805
H	11.558797031053555	2.4060665814797866	5.36732634941868	-0.10372704	-0.2150462	0.14239196
H	9.771906941647746	2.3231266343392414	7.122886303885135	0.26441603	0.14510408	-0.49923181
H	10.98049698429449	0.30130466033082104	5.4640864023427	-0.21469588	0.04777328	0.25685069
H	1.4106269382816674	7.360186588307619	4.460026312940366	1.01671804	-0.61201559	-0.3778284
H	2.8135069870595673	5.672646654153009	5.5461463061362215	-0.53804125	0.58735497	0.42696003
H	2.8947669659924995	5.489606629421756	7.236006414266005	-0.33352951	0.41800046	-0.85892612
H	4.773056984984435	5.9646966402248625	6.124716395829772	1.1545118	0.98886031	0.76967895
H	5.176656983935764	7.310096665637161	6.962586319710885	0.21005687	0.34235695	-0.32762395
H	8.653047002591977	7.280886634952276	6.293976312603463	-0.44532336	-0.35493659	-0.52470363
H	9.150206947079715	6.401976613180449	5.007846296989318	-0.46726181	-0.19509209	-0.06494036
H	1.324356984465201	10.337926643486295	8.067086367904665	-0.22428941	0.54113645	0.6581958
H	3.048906986201696	12.278233804458356	4.927166342391034	-0.24147679	-0.31492556	-0.32801871
H	3.293406928317254	11.112226603559847	6.844616354625782	0.35059998	-0.28924956	1.0228181
H	4.341557028457665	9.197136612804304	7.754596407491719	-1.27216482	0.97462232	-0.66582372
H	6.3455869821666395	9.63962658778751	7.38335633499026	-0.23343508	0.14953691	-0.06049997
H	7.441146997615162	10.834726652722233	5.736966301055549	0.8666098	0.37704054	-0.519167
H	7.841697036156361	9.392036561306	7.411616330064575	0.72276082	0.04641666	-0.06633731
H	11.917896949848567	9.775429815779816	7.0537664162710625	0.28401627	0.13927044	0.59365197
H	9.918276966592492	8.921096585743864	6.986466325029423	-0.20453286	-0.53469806	0.62496637
H	8.78745693921942	11.621126585309844	5.167286309229133	0.38468736	0.03303696	0.14854519
H	11.81559693977259	9.107839846915859	5.614766311030581	-0.75783652	0.00791805	0.23331505
H	10.961996971907796	11.083249787932813	5.567556295425568	-0.556633	0.84953491	-0.10142073
H	1.7357069785332926	0.0727895630509677	12.276396316712411	0.18644306	0.74918643	1.06201995
H	0.5666450538623883	2.551526552951738	8.80705630779621	-0.15929223	0.06975935	0.40606614
H	2.048216988075395	3.1492766260387812	10.390196292841972	1.94695374	-1.36981693	0.31328846
H	0.2803450515283678	0.9906006516649837	8.775836337203156	0.01880219	0.06522145	0.07220545
H	4.0570869775248175	0.3999434474072011	10.552864083774685	-0.12629761	-0.76188213	0.26210928
H	5.945516947169948	3.9652066543027678	11.476904113384906	-0.00237989	-0.66523407	0.72682957
H	5.845645029557981	3.4518365723203086	8.480856412583154	0.33860555	1.77974883	1.21965204
H	4.848746984898575	2.3551665564240363	11.141604119946287	0.06638894	-0.07294734	-0.09159292
H	4.615046998309909	1.8330965712179352	9.652414053081342	1.8092695	0.35050679	-2.95822951
H	9.91602899968219	0.107133555478225	11.306144052290568	-0.2770026	0.33308765	-0.43848569
H	1.9089870158551936	5.056896652759639	9.308186377541327	-0.38131382	-0.13531961	0.36423919
H	3.6362469754911255	6.509876659703899	9.52262638914879	0.52534454	0.91958898	0.48701853
H	1.4718969559374233	6.585986648543908	9.089916371210148	0.03841293	-0.06076764	0.27624347
H	0.7813450243721638	7.912976600255118	10.662196373160052	-0.11896933	0.08190295	-0.52717616
H	1.189869034839325	4.194446619269092	11.096696293740248	-0.49194225	1.00466975	1.0603117
H	4.305097007671845	7.118936606981677	10.884196397671005	-0.29529321	0.51281065	-0.62634534
H	5.573756934888558	5.526706585193824	9.907866402852017	0.97150346	-0.28736867	-0.17749267
H	7.170426986105418	5.032876620040403	9.86559629526501	-0.37016663	-0.00777416	0.10022409
H	4.886467014988726	8.14214661312897	8.767976394667837	-0.23610346	-0.53557146	-0.00592787
H	12.07665998556212	5.35891661361686	12.10969634524131	-0.55182093	-0.46475507	-0.0029972
H	8.988046991872231	4.179796563725014	8.949214022375434	0.08327324	0.24859991	0.70956301
H	9.479056953058231	4.390336582464959	10.485254015630673	-0.43189077	0.40477214	-0.63488122
H	10.961878958613985	7.45528664439696	10.039606338279746	0.63152436	0.40108707	-0.11739027
H	9.74610898717184	6.589286573275651	9.798576411235242	-0.56583775	-0.47843538	0.22117922
H	9.4998969827244	8.095046614354166	8.353816367043745	0.23016156	0.1277619	0.27884528
H	0.5121450240866926	8.62429656682083	9.274076390202222	-0.048859	0.54528665	-0.13947184
H	1.6465570034497827	10.278859866945442	12.383001082245727	0.11082638	0.25073191	-0.65696622
H	2.1734970436201357	11.921173847459814	10.93539629604582	-0.63792486	-0.11646118	0.69402445
H	3.6318170048905376	10.951526643089005	8.453656342531158	-0.55206011	0.0986388	-0.67904213
H	0.1017449749215118	12.351019764293193	10.503096355593868	1.56002762	-0.06339837	1.94899438
H	8.127106969806015	12.391231780562869	9.448936357880847	-0.62456043	0.16760001	-0.10272119
H	4.268216983784582	11.219526652473085	10.873554105436957	1.61949668	-1.41405249	1.32089832
H	4.834716943407844	9.291169868421234	12.352696405595294	0.22319839	0.27291044	-0.29632429
H	6.258957025691793	9.95376975569039	12.154496380359648	-0.81618399	-0.35072094	-0.28414573
H	7.459767010887983	11.574259801592893	8.371886321098918	-0.40525078	-0.81894993	-0.63797891
H	11.15669704317881	12.262022810836605	9.856856410294546	-0.77745898	-0.10709765	-0.03945037
H	12.327644944509318	10.75162654883711	8.960296409867436	1.16269949	0.98913968	0.01017856
H	9.8643089904351	8.797386620828684	11.547974039767368	-0.20542919	-0.66473074	-0.75945593
H	9.90725899703335	11.046119763943377	10.981524059360636	-0.18098818	0.98948845	-1.16963108
Cl	10.270096955853665	1.510726639644048	0.9793586887066394	-0.02196266	-0.02047391	-0.20484004
Cl	1.6014170427919774	4.401976585802584	2.7742063239331083	0.24521688	-0.08067912	-0.40771957
Cl	8.580426963235654	6.380046570065966	1.4993564161720607	-0.09943929	-0.29309066	-0.26642293
O	2.665476949856734	0.7929685955942422	1.565146315822507	-0.16582455	0.93577067	0.12205023
O	7.161356981241261	1.9569865726908304	1.2648263289279733	0.71399342	-0.59704568	-0.11807383
O	6.274837018731386	2.8645434051916334	3.632806371796682	-0.12000799	-0.58495028	-0.0326771
O	11.501628907041594	3.0509265932482013	3.5332586354377167	0.09932137	0.70243597	0.1146046
O	3.812727036443075	7.778236569519089	0.0043586548109169005	-0.74402594	-0.53307531	1.23048187
O	4.208757041606831	5.381016629133655	1.43265866500162	-0.04512334	0.48003122	0.70453309
O	6.35222703119899	5.440426580948767	3.2279563187162075	2.51467065	0.33764713	0.24208718
O	10.104058959587064	5.695286655094111	3.8923263776535983	1.04744564	-0.84997444	-0.65452692
O	12.040296984126265	7.973766583848363	3.9494663216069763	0.69940428	0.21260795	1.57370867
O	1.975745024346674	11.253926556874788	3.3344362996301604	2.72591825	1.04917948	0.59398609
O	3.525396964390873	9.120336545950813	3.9975586364143028	0.72441043	-0.96100733	0.49637844
O	5.317226966051048	12.252826657777556	1.6083663246173454	0.02958227	-0.35760905	-0.58514199
O	7.139896946996771	10.513439798217762	2.708458598010876	0.06636895	0.46564799	-0.39212407
O	7.703746949163659	9.068826583378284	0.5035983492090305	0.32991054	0.83155103	0.00515786
O	5.899167039689291	8.499456558777698	3.7921363602220093	0.25873697	-1.32949463	0.6429695
O	11.963393931776277	11.616426624737997	2.6332663137358727	-0.33057624	-0.79670968	0.51048787
O	12.0187969495864	9.202076622119769	1.5504763085036442	-1.18999492	0.35581486	-0.2997167
O	2.937545045855347	2.611476614439988	6.711776305093554	0.89378872	-1.18119349	0.18670256
O	3.5925270253191544	0.012374562432999501	5.7190363885861215	0.08961315	0.56594204	0.33112828
O	0.627645007412099	1.7688466303972006	8.230316309826392	0.13503165	0.19454215	-0.50751899
O	6.373026936345263	0.9842366264848217	5.821256326788952	-2.12900264	1.09834495	0.22755195
O	5.609345023769901	2.6676266496472913	8.005316368795276	-1.73744567	-1.08009977	-1.1501643
O	8.930906942601746	2.825276549787742	7.234086393268874	-0.62384524	-0.17744391	0.9323581
O	11.299296978172146	1.8916766650834507	6.176006347518359	-0.06718291	-0.04100613	-0.34218831
O	2.2638969658218726	6.841596564390976	4.243796398691351	-1.48547237	0.72196606	0.43885367
O	3.2165069815802623	5.212576587667145	6.325196407236892	0.57427119	-0.41615345	0.25045712
O	5.580807049060767	6.608946590227666	6.321066358840972	-1.51323707	-1.97561019	-0.98043721
O	8.324096995875022	6.70410665850291	5.510756346145821	1.10957579	0.52193162	0.60797622
O	3.2760270484255956	10.47492663622939	7.6445964087564215	-0.08327772	0.78907538	0.11416712
O	4.870816961535283	8.391086603171246	7.799486371883454	1.34096777	0.00741021	0.67861218
O	7.191747019316093	10.109946561677463	7.187666390825609	-0.67915061	-0.16427326	0.18848297
O	7.826306984622859	11.450126645155576	5.002556347027134	-0.52527166	-0.412129	0.57899143
O	9.167786952672772	8.437326551530253	7.488466413979521	0.18316532	0.016387	-0.9159794
O	10.523396962951855	11.902395872966876	5.142476373203476	0.55210072	-1.00579951	-0.20029368
O	11.278296947324476	9.586789771936983	6.313726393566456	0.46483691	-0.33228218	-1.042964
O	1.2426069398016575	3.6202166016009145	10.321496405944762	-1.23708632	0.37332777	-1.50034748
O	5.649966938642581	3.3457465827828914	12.232957128571236	0.03353985	1.25056869	-0.80554931
O	4.23713700272678	1.8910166552873355	10.488444086048931	-1.72538539	0.32963149	3.05382765
O	2.2033669536305656	5.9178866382241795	8.938976349851487	0.39116605	-0.05675506	-0.76601768
O	0.4013449512433994	7.77082661767031	9.757016310766755	0.06798686	-0.6177249	0.6865189
O	0.6011300290079078	5.587236640230317	12.067396343923422	0.5429905	0.55842941	-1.68863861
O	4.428986990840024	7.065966596383141	9.880366403168193	-0.26434632	-1.52441964	0.6418889
O	6.217707031647005	4.74154665595057	9.8939463436531	-0.78499144	0.43847329	0.04636502
O	10.618797046300063	4.6750465687805045	12.19297110048815	-0.1747947	-2.22882991	-0.79991555
O	9.98171892575243	7.509566610432326	10.026216303612179	-0.00016316	-0.02696613	-0.28109802
O	8.901317034658947	4.7679465507998495	9.754964062727636	0.70469492	-0.52564737	-0.25336223
O	1.5970469484099334	9.313569820618717	12.211860093153314	0.55421578	-0.40959753	-0.20591451
O	1.3392270321588204	12.005049761052568	11.553896347572007	0.88631266	-0.43468185	-0.92744118
O	3.7331669458390855	11.85372661144265	10.439144114130158	-1.67768465	1.51602614	-1.83510334
O	0.4155579754517966	10.110126598235176	8.393756376146928	-0.13388791	-1.66066771	-0.91365768
O	5.281926953831121	10.115389778762932	11.993696389425308	0.59566382	-0.01836436	0.63108085
O	7.306206994961733	12.386624758117433	8.876476373122864	1.04534124	0.85212108	0.55709927
O	10.14111898480352	9.63717664931616	11.938717104800636	-1.47226263	1.37628938	2.05746867
O	9.80243896834871	11.977066811833502	10.483484083489833	-0.46180004	-1.25174878	2.13728002
O	12.12289697295428	12.233552806195707	9.650236400220974	-0.54249038	0.07236287	-2.28656006
170
Lattice="12.503161 0.000000 0.000000 0.000000 12.505608 0.000000 0.000000 0.000000 12.484627" Properties=species:S:1:pos:R:3:REF_forces:R:3 REF_energy=-827.34521456 REF_stress="0.002056199083940596 -0.00103781556191336 0.0015880603717270273 -0.0010374207927026568 0.0039566469312444985 0.0014315194343896896 0.0015875986810554763 0.0014318841320094242 0.002257640195869222" pbc="T T T"
Li	7.521591430112584	2.149709011237804	7.497590969680701	-0.45399061	-0.29318181	0.39695462
Co	6.591261480728506	6.730069018779	4.9731009992874675	-0.22515063	0.26292746	-0.0250907
H	1.5075815110077888	1.6112789337236348	2.0501640314280647	0.31717467	0.53787055	-0.06203001
H	0.40153151233382406	0.5731340150789784	2.240963965014362	-0.74113236	-0.676753	0.1345469
H	6.178241438946586	2.4770190394965534	0.6108470837140564	-0.01393108	-0.69751448	-0.25496603
H	7.168191461052327	1.3069589650815416	0.5575830453640841	0.92457648	-0.21988196	0.06993747
H	8.045611534138752	2.4314809935056876	2.8000310579970686	-0.62847623	0.89276888	0.43435907
H	5.4952715253629565	0.0283809771089854	1.2059139733630846	0.3434112	-0.11291614	0.12191311
H	11.994725420952424	3.513659033275693	3.1556640245012986	-0.55850549	0.21281602	0.8440179
H	10.664482493420794	2.8027489841857665	2.994264014332325	-0.62897442	-0.23337827	0.06774641
H	10.669852476021505	0.3554810362095827	2.1417609935493314	0.25778736	-0.22104579	0.11493482
H	0.2402922489729792	4.666358947735067	0.4925639815594984	0.17770268	0.13496695	-0.72834337
H	3.61706143968169	4.8264890061403	1.7849639604180267	0.00052319	0.53792519	0.17410992
H	2.1626314910729088	5.570009053793191	3.617321063311061	-0.31438349	-0.2931176	-0.50983334
H	3.880871509262381	7.403068942527641	1.0072639559740004	-0.22460549	-0.62605709	0.59825335
H	3.3338614680842302	7.868388984722831	3.779963918103858	-0.44218915	0.495399	0.02139568
H	6.485391465426145	4.359998939261565	3.5791310885196035	0.38694578	-0.19607801	0.22602372
H	4.968741536805677	4.961729027906957	1.0673639518706757	0.52003328	0.3405875	-0.34617748
H	7.065101523589421	4.95485894710157	0.513870995177718	-1.26611752	-0.7065506	-0.78641736
H	5.403301524163046	5.436139021381838	3.0861810822914095	0.32007778	-0.46699295	0.64230455
H	9.661442411979591	5.860008975782015	2.9651110368382483	-0.47951133	-0.00055744	-1.2157331
H	10.310272444561939	4.7943089503800325	3.9234910610200067	0.02509974	-0.20825836	-0.26112024
H	8.938361482815015	7.874649041970466	1.4301110334125056	0.42173041	0.61092905	-0.38236666
H	11.991051492135938	7.898148955224874	3.6211610849021763	0.76334802	0.32217991	0.51842523
H	1.3290314962662144	10.37217702845846	0.18418470424601519	0.28118674	1.11642219	-0.66097352
H	1.5758115104297281	12.413002962385411	0.3893030069148854	-0.50307866	0.92765782	1.10187033
H	2.977441485525696	8.703678935488739	0.5679640127644742	0.68283896	-1.02048878	-0.153355
H	0.5538295152289536	9.217436949111597	0.7462680831264176	0.04616321	-0.58588748	0.43873016
H	2.765790477427008	12.21228895459455	2.8319210402815087	1.03443116	-0.91320709	0.35136442
H	3.1570515182534598	9.455028994416327	3.417164026589564	0.3375153	-0.16368969	0.07856486
H	4.177090522241049	11.402788944018178	2.6248910915172114	0.45156203	0.40473576	-0.5543488
H	5.604971508930586	11.049988985105573	0.6549560201946599	0.03392623	0.1026195	0.37089922
H	6.922701523036666	10.852876967584072	2.4435639935589597	-0.13031193	0.4589688	-0.17249526
H	6.793241418856244	8.874918976032289	3.2678410204070816	0.64597791	0.84422988	-0.11347009
H	8.104761488008322	10.720017013130072	3.5673639529767414	-0.69208275	-0.00138025	-0.13104067
H	5.239831446823719	8.337609025825783	3.406181050472341	1.32663994	0.37942905	0.77138874
H	8.803661428907866	9.438488952232674	1.805660975158095	-0.00851936	-0.07783889	0.26461508
H	11.331362464259827	12.328788947619952	3.491231074163344	-0.34278822	0.07559297	1.29047468
H	11.837751485921473	9.789559010392026	2.47476107904157	-0.49405455	-0.67865512	-0.25064403
H	10.885451482224921	8.622298941605974	1.8090610384916155	0.04703493	0.88101467	0.43051699
H	2.4865905170838722	2.361379057132624	7.544070986532539	-0.70400047	-0.35195239	0.44154486
H	3.8126615148979774	1.0297510295056884	6.210231034766294	-0.76931028	0.63904876	-0.13696295
H	3.079990536245472	3.538409007104782	6.7404709990211895	0.23675386	-0.06577301	0.18087075
H	7.47767145157678	2.3254809590608496	4.237701033709321	-0.26757955	0.10863886	0.28829079
H	6.19514146148978	1.1849780141862827	5.7997610917488025	1.22465402	-0.38238014	-0.33507824
H	4.711090524313882	3.033349019007209	7.961121077088275	-0.50986902	0.19777873	-0.12985687
H	7.563381495178849	0.4322679703897807	5.413451024479011	0.09801574	-0.66864291	-0.09790384
H	11.749751488389583	2.332919044581142	7.09041097558606	-0.2263289	-0.09293435	-0.72787838
H	11.35165146858123	2.7497089490177795	5.544781061296351	0.17263064	0.00320162	-0.22380831
H	9.753151472210266	3.2633490347572915	6.9581810468502345	0.40262449	-0.83633996	-0.01250901
H	11.297051540016614	0.2756482361473403	5.688571005612113	0.5668883	1.32421812	1.40361245
H	8.541501526510675	4.051498971148814	6.502361070576105	-0.17061157	0.01304955	0.28687827
H	1.3490314275062207	6.7608989691006665	4.2161309689989475	-1.04537021	0.20785355	0.12056404
H	2.5810715280993795	5.513339015793947	5.717141075868757	0.44363719	0.26025774	1.09328319
H	2.479111501292429	5.747199012506223	7.337141039630993	0.01422799	0.04763769	-0.01033238
H	4.493491512483303	6.136899018802763	6.415601027516694	-0.46445975	-0.50861582	-0.03987108
H	5.022291449912871	7.52279900904078	7.060650995524326	0.7170546	-0.02563063	-0.32335204
H	11.41225153905894	6.748928976300879	4.372921030626017	1.32537928	0.86558453	0.84880471
H	8.955681486534855	7.449628946803449	6.097171001188557	-0.26757999	0.51998945	0.48966262
H	9.039631460168582	6.408768935608085	4.865081009653854	-0.4142316	-0.36783723	0.76363551
H	9.720201517037548	8.28257897325835	7.786661023398105	0.79863832	0.09480648	0.37341575
H	3.6846815349120003	12.392349950789926	4.964331048162901	1.1964351	1.10120126	1.19068223
H	1.6288614221301312	10.227578935176806	8.014280993648567	-0.03764715	0.08891546	-0.15551592
H	3.7154614414684994	11.10098898044215	7.010631087515894	0.4639732	1.07828368	-1.29235648
H	4.402711437111956	9.402169040003399	7.927981009096317	1.10382409	-1.16067106	-0.0695202
H	6.935241443289888	9.545058992289697	7.665571002541648	-0.52098041	0.83246482	-0.59074973
H	8.076661508971988	11.052188971663172	5.944671031958117	0.44012446	0.68308724	-2.06385933
H	8.372861517145997	9.872419042980406	7.299520988064824	-0.95050539	0.44606683	-0.12800253
H	12.289651482056218	9.874436947885673	6.863181025084953	-0.2549827	-0.88581247	-0.61425415
H	10.434751539479118	9.016099036538115	6.4342109871511415	-0.00177671	-0.1959372	1.00131414
H	9.330611523673403	11.888988974593873	5.1001510562561	-1.00476396	-0.92543521	0.09731882
H	12.045851471275911	8.769266972657812	5.473971003229984	-0.28511893	0.94827653	1.19902362
H	11.400351530583649	11.200426947206397	5.306621069496756	0.12542375	-0.02760724	0.6096165
H	0.21959051530828802	1.2957589425656977	8.97150107113018	0.45548279	0.44025713	-1.14015341
H	0.5650904871475777	2.8125189904279537	8.975511008495582	-0.01322134	-0.23878775	-0.78577844
H	1.8829215267942145	3.545578972389769	10.313890994892196	-0.20991253	0.38056967	0.33775018
H	7.092251512456014	0.0378259625995128	8.866021078871922	-1.23943213	-1.8352936	-0.17223912
H	4.945941522668679	1.9395990399397365	9.881498046757345	0.40494179	0.72136917	-1.46998324
H	5.778990503171865	3.874978937855807	8.967571035377963	-0.63167875	-1.06940203	-0.99145289
H	5.242361461443975	1.7408790513428813	11.317648143971313	1.12597749	-0.2067206	1.53812695
H	8.432051481130637	0.5187920210631525	9.4089810054069	0.44319438	-0.3253224	0.40208605
H	9.838172466611827	0.2261950594630451	11.4520881013893	-0.03655884	0.16458292	-0.68043095
H	9.732191423240142	3.1091990330367962	11.887341152737326	-0.06115361	-0.06157501	0.2387639
H	1.3401814401155137	7.054889055430859	9.176791037421125	0.12114944	0.43195891	0.04973801
H	1.71913149356592	5.586778949051701	9.460791084089465	0.4701216	0.16996794	-0.5558483
H	4.142841488644589	7.432779015653803	10.977390994461638	-0.72157451	0.30766404	1.90705225
H	0.6155594963626176	4.52886904203493	10.89989104898517	0.5759377	-0.91863118	-0.23235282
H	3.6762915388130115	6.874509041175658	9.54098096731228	0.32408255	1.02181168	1.07077463
H	5.554971493283156	5.982688990163915	9.81482102447919	-0.1626882	0.09392826	0.25955419
H	7.070941500010618	5.579959015734354	9.577341070315553	-0.47073239	-0.77829947	0.49812744
H	6.116811533675962	4.6132790196775915	11.673978127204302	0.41533929	0.22588216	0.23448761
H	5.063941479576385	8.288988972745782	8.947930969164794	-0.22357496	0.30372918	-0.76156633
H	9.208341487234637	4.784628984515373	10.114738096725135	-0.38977563	0.78606077	-0.60114978
H	9.767062489094362	7.1636689614757945	9.732451075679158	-0.2150737	-0.20205439	-0.31604134
H	11.028412499609953	8.02055897353027	10.081771065664228	-0.21698164	0.44110124	-0.68101879
H	8.994751488934272	4.914708942313196	8.5637781206047	-0.11497772	0.10980253	0.15575197
H	9.52280148676946	4.613978958556792	12.263375123474033	-0.4393871	0.10837094	0.29051579
H	11.422212432300942	4.691468958018188	12.066091049131582	1.41713936	0.00745636	-0.4891254
H	0.6217905716586432	8.527779055295957	11.185390998748497	0.19006341	0.49689059	-0.00691191
H	3.5789414274520133	11.10058905109863	8.564500980511475	0.12961956	0.10110109	0.44967997
H	0.355690548148128	9.137679057641215	9.674621034674532	-0.10261763	-1.02566228	0.90447065
H	2.4016814259729027	11.933467045251508	11.710358080764603	1.233655	-0.21573632	-0.96229932
H	0.41126047194001925	10.92848899989361	8.796841013714511	0.00810193	-0.38413022	-0.55484013
H	0.390290545472736	12.053837023725494	10.69359107636507	0.35301253	0.1603619	0.76024981
H	4.6381714644371135	11.067689047486379	10.640748144485832	0.67958271	-0.81588549	0.39938361
H	6.926611511532077	10.07671703296512	11.596191035305456	0.22689213	0.03402621	-0.04427111
H	5.739171436399335	9.141306934519115	12.000291071904394	-0.28500612	0.22738178	0.12752658
H	4.186721457065318	12.482088943165367	10.308398133524607	0.06335865	0.82700691	0.09961736
H	9.199052388831015	9.637328994666234	12.167274082448328	0.18687555	-0.51710648	1.10328789
H	11.425551526466919	12.165125929901464	10.057141018861449	-0.23251335	-0.03107826	0.31870261
H	9.134222499000538	9.227029000552086	10.705968085939814	0.47288898	-0.53309474	-0.81837903
H	9.631592490535297	11.31658703780663	10.966928127907734	-0.38094125	-0.2989513	-0.64964671
Cl	1.279901450558381	3.8819589429554253	2.2899610075277677	0.10714418	0.08704276	-0.04516517
Cl	9.174371524190803	1.4369790210170923	1.0760639890837072	0.36213842	0.06842765	-0.05270415
Cl	8.673581418007046	5.93494895671817	1.152640072157735	-0.037043	-0.13033613	-0.09117512
O	1.3545614505672194	0.6502349650758054	1.997163918094141	1.04332248	4.328e-05	-0.2298357
O	6.227311469481811	1.4927790438684723	0.4128960805940616	-1.14418365	1.23397923	0.07257752
O	7.537931436076378	2.9690809487614804	3.493971075264202	0.77296221	-0.86551466	-0.70505895
O	11.097122495381145	3.371799042863451	3.6569639989997618	1.29005567	-0.05704798	-0.69972851
O	3.801791516822573	8.1393489934908	0.39486390949995054	-0.21868531	1.2543239	-0.91139974
O	4.360021519551398	5.473459007082076	1.676363935011205	-0.5784615	-0.56775364	0.37907101
O	5.980661488192282	5.155938994038299	3.891580978486	-0.72049628	0.40560129	-0.94120897
O	6.226081533538176	4.439069022292497	0.16163909077717298	0.84885692	0.24220467	0.46144412
O	6.249941440629754	8.175268976376557	3.6751810674206307	-1.8070099	-0.88740815	-0.33201385
O	9.938012457446401	5.722729039240029	3.88004106315563	0.93044102	0.35695785	1.19821418
O	1.3573215233491394	9.405396987537776	0.2135977365217516	-0.37941697	-0.95632022	0.38477411
O	3.475390498444512	11.616888954601535	3.2696510416382396	-2.03302377	0.65861143	0.42070782
O	3.769141512481286	8.76162904752184	3.754763948075789	-0.19557582	-0.57222753	-0.07773923
O	5.515731447894682	11.584689014924564	1.499551028505308	-0.11503753	-0.09321837	-0.22730051
O	7.648071530909799	10.280157013185642	2.779964017538448	0.65032539	-0.46971379	0.06903124
O	11.469752451029493	12.421388972991345	2.5430710905391716	-0.11153311	0.0730711	-1.83546368
O	11.783351482900608	8.82311899695259	2.2574810017684714	0.67221055	0.28413614	-0.05569399
O	9.40442143376857	8.776119045387693	1.3542510685466393	-0.70153601	-0.30672877	-0.23463723
O	3.303490539922733	2.6325290260859613	7.106081055240419	0.09514125	0.357727	-0.55926218
O	0.4902905767675968	2.041108935835765	8.314170974253791	-0.45826005	-0.14125715	1.83382982
O	4.228211446268545	0.2808953391477845	5.763000981294526	-0.0787959	-1.75889684	-1.200594
O	7.208931510661172	1.271669014726321	5.7887809870958025	-1.88489153	0.93828288	0.18797312
O	8.829931445306094	3.4838889332311784	7.251141060666995	-0.15374641	1.08926609	-0.42269194
O	11.04105144489798	2.2987989938533855	6.355211013733414	0.39931164	-0.04401697	0.97336872
O	2.233421512701408	6.36233898965537	4.180341038913505	1.20199876	-0.13019011	0.39412124
O	3.01186143733248	5.302148935133783	6.6259110623484645	-0.57698883	-0.12947368	-1.26794616
O	5.273101482917012	6.733679012637473	6.41557106441175	0.07616959	0.36238321	0.25734436
O	12.195551442355162	7.438329004479765	4.524201002100154	-1.98129324	-0.95946375	-1.6655869
O	8.427631488699667	6.698079048260179	5.656051049046225	0.35155532	-0.65420306	-1.05839804
O	0.6553334267240832	10.127439028636081	8.196300988408648	-0.1230737	0.70605155	0.77194387
O	3.339511521490445	10.607888980657973	7.734951071424562	-0.47112587	-1.01095947	0.93077363
O	5.143471460779143	8.643778949057838	7.9976509710195645	-0.81652654	1.29337445	0.57244328
O	7.44650144639833	10.323989044134512	7.297341047333877	1.51845125	-1.28249741	0.7115415
O	8.388621501472858	11.481488986108687	5.013271035930641	0.48608043	0.15660716	1.88930963
O	9.585471455544097	8.582119048414503	6.865011021719408	-0.9778112	0.15056736	-0.47248539