170
Lattice="12.287696 0.000000 0.000000 0.000000 12.290101 0.000000 0.000000 0.000000 12.269482" Properties=species:S:1:pos:R:3:REF_forces:R:3 REF_energy=-827.21973494 REF_stress="0.0008172596035923883 -0.002859343851686292 0.001726229277156108 -0.002860127966236268 -0.0032942708447240877 0.001767971822348539 0.001726046407180229 0.001767741117446719 -0.003432666691424986" pbc="T T T"
Li	9.581759139195736	2.6475955253800447	8.505858344392824	0.01951558	0.0463044	-0.39959141
Co	5.867919186217356	7.043285504961376	5.4136683403452	0.46104922	0.65288909	0.14959328
H	1.4208390977479106	1.7164255674372926	1.6757883932614202	-0.29554645	-0.43057183	-0.37654829
H	0.2865211837126898	0.5208375251260543	1.7915483769815026	0.40991469	0.293318	0.17311679
H	2.9401691189751875	3.999315537507629	2.962188342081045	-0.52607062	0.28762534	-1.2027372
H	3.67290914522847	3.2575055583732992	4.010688315645322	0.76421623	-1.65755227	0.59703432
H	4.058409073962049	0.6785343935180096	3.7490384272613175	0.0357083	-0.21860329	-0.71987942
H	2.26242292308746	0.037934380314969596	2.840778384709905	0.19540471	-0.26615291	0.12814821
H	5.431959095530312	1.57963440685248	3.3382783860332848	-0.45248117	-0.51307052	0.1608177
H	7.420299178321229	0.5003055592939712	2.9079283994639327	-0.06440524	0.35503542	-0.46520737
H	7.605359133737623	1.7261855054397182	1.8301484119566378	0.05215056	-0.60989877	-0.03715616
H	6.885329131864797	0.27605054217755515	0.012088384199370002	-0.50428522	-0.28622291	-0.53207485
H	10.377705354732983	0.5570344538456896	1.70024834129895	-0.25175023	0.22778832	-0.13306655
H	10.928585387429901	0.27073445893809917	3.150658378904985	0.03222045	0.28134164	0.54912942
H	10.312019139712863	2.8789155071252925	0.7850364103879874	-0.82037543	-1.54061067	-0.13744175
H	11.617119074741245	3.6710555396632123	1.007208382377645	0.68544437	0.11165256	-0.06752964
H	8.36021910216727	2.444065551584307	3.762608351382	0.22784214	0.42167635	0.26152271
H	9.3271591785812	3.7196555155321405	3.7358283670403627	0.2365441	0.7230916	-0.306341
H	1.825769191946539	6.275295521124255	1.2629084309766225	-0.4680143	-2.64956878	-0.56321675
H	1.1284340735580822	7.669265582575097	3.0345584078456103	0.42517669	-0.23295082	-0.82806518
H	3.825389134150212	7.596715517950591	1.105636618872495	-0.42205542	-0.11198715	0.05211343
H	1.6431391284655608	7.708195583981798	0.7196284166528251	0.33315516	-0.08846685	0.42332246
H	6.066819142562275	6.024015554853049	3.0654884216943676	-0.04119792	-0.3214807	-0.90285658
H	5.410279175757019	7.578485610959296	0.8876366387622902	-0.19789742	-0.1455029	0.30468401
H	4.863409109857588	5.164015606080038	3.8848384009133103	0.18479375	0.11894538	-0.61752284
H	10.07928538034692	4.643605530670937	2.1531366296741474	0.05740522	0.40162707	1.20658804
H	8.812145333866708	5.3482356187980535	2.63583656863659	-0.52128212	0.48694337	0.09372087
H	8.544789147133777	8.167105501782375	2.3621883540492603	-0.1536784	-0.09211232	-0.2653079
H	1.9035891383925208	12.036669648626726	0.3223365855417675	0.11209397	-0.07420683	-0.84980246
H	0.007301103363766801	8.210635565137279	4.0451683813436246	-0.04915562	0.13716072	0.07989258
H	3.4986229190158826	11.354035523177107	2.5740483174073128	0.15252952	0.23662443	0.75655308
H	0.027939149371175004	8.96151662210626	0.3267943336511775	1.608801	0.49999719	-1.21446866
H	5.438079105529567	10.979535617581837	1.1341053746822025	0.02120802	1.0673577	0.37650941
H	4.9793391005000345	9.694015620632076	1.6617983620856174	-0.68745529	-1.2032304	0.25270885
H	6.430279122022142	10.620366629925677	3.0497366156340826	-1.228279	0.04370999	-0.57275092
H	8.24991908819723	9.626575534251245	2.8496683604066853	-0.23821007	0.70213383	0.29803427
H	10.25521914087405	9.441405619617663	1.4269883331141902	-0.73060659	-0.39188837	0.35140086
H	10.339319083124593	8.881285612984787	3.5850983972157007	-0.29263745	-0.38949562	0.39999233
H	10.819319137346215	10.857935513585389	1.3576783987928924	0.72997984	-0.24183905	0.37103365
H	2.774322819815743	0.8058155967571776	7.909858330106355	0.87252111	-0.8876015	0.66894818
H	4.1657228091100205	0.5392326110764032	7.279168319288843	0.96794502	0.13691399	-0.45501587
H	4.9983791316088295	1.2827756173696638	5.403248360274195	-0.02698855	0.08714539	-0.67170702
H	5.591639182952563	1.881335619077587	6.726938331502509	0.04223173	0.19556177	0.26570938
H	7.3607190882035916	3.5581455203666943	7.214378339349428	-0.54469787	0.05008579	-0.20437185
H	12.023319102348346	2.301595503974976	7.673598416476531	-0.82982763	0.87344322	-0.37166063
H	8.654729131603398	3.236975558957395	6.282858426770453	-0.23878031	0.16805523	-1.17869789
H	10.006189070097209	1.5777155533646143	4.7267883974313	1.23807605	-0.57792958	-0.24814314
H	11.102619101484345	2.165985545008806	6.467488361196278	-0.21934184	0.27627272	-0.22844016
H	10.49791908204559	0.1145003583814464	5.256748416977663	0.30022989	-0.03097863	0.00942344
H	2.4962228858578817	5.082225597631494	4.724568357403455	-0.72463387	1.04972073	0.5920191
H	1.7422228104125095	6.580435503642739	4.896468336429202	-0.2443445	-0.2268932	-0.32414865
H	3.667039189848105	5.999625603378387	6.1619583890608425	-0.19599798	0.11588796	-0.1008143
H	0.8025228363295235	5.185065599674329	6.229888374769718	-1.94555821	0.05046222	0.55095115
H	4.233109149784673	6.843665503935955	7.380638405699153	0.37518325	0.16758386	-0.32701084
H	5.210849128195442	4.444425515265612	7.525138423470436	0.59918775	-0.68467358	-0.91347254
H	7.716039083276022	6.755835525291987	7.511948362504733	-0.08750516	0.08993227	1.48624809
H	11.122795375866303	5.381425528476659	8.086478378761328	-0.02447538	-0.29611291	0.19906188
H	11.91441914849017	4.105475587467021	6.810658404054728	-0.00628573	-0.24316205	-0.21783225
H	10.020955440446777	5.877105585313107	4.525318353913965	0.29845991	0.3784536	1.36333443
H	8.411769182778997	6.764775590648697	6.1721383780688175	-0.90425987	0.01525286	-0.31458721
H	10.730385338263952	5.8376655447099255	6.083878351879463	-0.40680058	0.77586222	-1.81236951
H	10.665619103062818	7.747655534548794	4.803498424280475	-0.38868802	0.85173193	-0.4269709
H	2.744079113011005	10.612935543184479	4.366636655661946	0.08640706	0.59795396	-0.63510262
H	2.105249157071361	9.156155568048755	4.5300365831209275	-0.37697546	-0.32847839	-0.36121917
H	3.192639130320016	8.664175569055493	8.137608376584014	-0.22699514	0.58539622	-0.16708762
H	0.7387130754052686	10.171835579619929	7.9313383891112625	-0.48194648	-0.21784287	0.10330166
H	2.822689158326505	11.06853561385243	7.475078324456348	-0.20253539	-0.57656935	0.62150193
H	2.4767891569609164	9.915065502277407	6.456208413149415	-0.30947908	0.35032493	0.95038699
H	7.051759096596591	10.976456701449255	4.432736648167808	-0.36623984	0.01340179	1.03858308
H	4.257699164663223	9.04136553198391	4.8881983376452505	0.7788245	0.40812571	0.02102481
H	6.975239188414917	11.017135584245331	6.775168314618766	-1.43830983	-0.01663422	-1.20596143
H	5.842239129803581	11.931635617731947	6.16651834195323	-0.33814974	0.85786759	0.11046159
H	5.652969163894587	9.670325590416198	5.485988346624225	-0.19069826	0.27410452	0.08176055
H	8.969239106980154	10.660035512211712	7.363808357582679	0.73373843	0.00831764	-0.59636697
H	11.030219134981689	10.577876677828558	6.876398409966045	0.00262535	0.1809092	-0.17710021
H	10.652119102689806	9.907746624159437	5.545598396758425	-0.01928438	-0.48990515	-0.81812582
H	2.1059791691061673	3.4779855480296957	11.045118386720272	-0.11339684	-0.31648335	1.06807959
H	1.5462228732619132	2.2945155454227772	8.94547841520357	0.15582605	-0.49291819	-0.49025071
H	0.838122872810958	0.8847475421902655	8.81728834221738	0.33335218	0.25870476	-0.145244
H	5.79153911201912	3.690185573660538	10.584318368428224	0.38339823	-0.21650945	-0.18841097
H	4.470109074415124	3.057475559574515	10.107748385242898	-0.219127	-0.38434896	0.41564102
H	5.49373917478634	3.393215558762585	8.592258317148877	1.08303288	-0.63730313	-1.29250104
H	8.927369150605092	1.1002386110990208	10.020898367896253	-0.02492893	-0.43230978	0.2062431
H	11.40971910450847	0.10447151296651519	9.9423684088191	-0.71557998	0.27361759	0.5424408
H	9.781899169847215	2.9949655243569597	11.008218411136419	0.18840365	0.09415595	0.09196402
H	9.048669110267083	0.0536295768512768	8.75365831908261	0.66778685	1.11028709	0.84180222
H	1.765359190823501	6.569285555203641	10.171518403164436	-0.79088104	0.04541832	0.335262
H	3.1216891119760377	6.6841955426554165	9.610118327412968	-0.46371116	-0.81628518	1.45432446
H	2.408979136519218	4.367105539495424	9.90170832785814	0.22941105	1.04095654	-0.19123296
H	7.8651390955875256	6.078195605333491	9.345008322480645	0.13074029	-0.80060602	0.85014761
H	7.261749190324011	5.221725619404166	11.57430714664383	0.08261519	0.24594334	0.03293025
H	8.124739165564181	4.261395553039046	10.69494013858104	0.44225409	-0.22213605	-0.21360961
H	9.30853914093057	6.512555554542822	8.751388342264043	0.34333908	-0.87547597	0.32947278
H	11.271945399101584	6.522105577618118	9.086238326853	-0.67560476	-0.67224222	0.67018453
H	10.24661910513864	4.3795555348309945	10.315318324307064	0.17806767	-0.03290313	-0.33819109
H	12.231619146332164	7.915675596277503	10.51701842060721	0.18556847	0.30229656	0.29099741
H	2.6792691336111862	11.610539642731391	11.154818350709213	0.89100857	0.29869967	0.17198656
H	4.000069181027933	11.917235552051666	9.568780112195686	-0.0183744	0.36979668	-1.31096409
H	0.4995228689164728	11.993368672756697	10.812818325630444	0.43930593	-0.10009163	0.67506954
H	1.2960690926620948	9.661786673960044	11.883663111273368	0.34500375	1.2126367	-0.00313985
H	4.326089164368392	8.37484557261778	9.216488323130198	-0.06625558	-0.05740621	-0.29411323
H	4.402059075265469	10.616735519549772	10.499260186196349	-0.65136074	1.25785052	-0.16766897
H	7.847545449205494	8.453375508843232	9.876090140743411	0.06170489	0.61975806	-0.11268814
H	4.792839149958931	8.59751664150185	11.463918373949445	-0.75902867	0.33798862	-0.01493037
H	5.921929140743373	9.312206668999732	10.750518314317373	0.38969663	0.14989214	-0.85753898
H	8.06569911969717	10.606735555872472	8.610288320580503	-0.58141851	-1.07414429	1.08728662
H	5.617469149260709	11.995038651696882	11.392080067523924	-0.67267785	0.52589648	-1.33849122
H	12.04881914401191	8.687935529946746	9.097848323958939	-0.36300584	-1.11685953	0.47959384
H	8.389875334213817	9.85765561322263	10.458600105235387	-0.01224054	-0.18705331	0.35380701
H	9.577705428199563	11.634879696395506	11.38038013511676	-0.3904966	0.27744662	-0.07494197
H	12.075673412680288	10.730935507859847	9.071798373781425	0.02877194	-0.39402926	-0.71357581
H	10.279245396248191	10.322296650977485	11.68653707776962	-0.07915458	-0.30000741	0.02137704
Cl	1.6135590801358253	3.7049055506729722	0.8737094273330475	-0.14307279	0.14828646	0.49167636
Cl	8.857389123003879	1.2793255401832575	0.074336618299455	0.25684642	0.19831845	0.0614709
Cl	7.000329189654287	6.365995607082777	1.3350183837280876	0.42571915	-0.11682434	0.14012615
O	1.2716691684446877	0.7247605363556096	1.688948393996835	0.24042257	0.1368347	0.32279822
O	7.275119186870592	1.4735455165785727	2.72073843767097	-0.27940515	-0.00386949	0.82396152
O	4.630529126906152	1.4807344883277056	3.9251183733296555	0.33439306	1.15494687	0.14161152
O	11.071035421402454	0.072234454827744	2.1908483541705825	-0.18632472	-0.08544833	-0.48455749
O	10.643519189831357	3.7530655409218046	0.9444363641016525	0.36654486	1.68218122	0.29401857
O	3.4694290729795987	4.155315511637945	3.7572284290242597	-0.14520615	1.05362705	0.27113216
O	2.059139085347861	7.154415548912684	1.4685583188417302	0.23103568	2.65009256	0.06620527
O	0.9497991087621177	7.853525538121753	3.9686684080220105	0.73038594	0.1404271	0.80805726
O	5.573709099446933	5.863705565160959	3.9056684227751024	-0.13849117	-0.03494579	0.86658965
O	4.5965891581894445	8.150325580921216	0.8493365926159425	0.59713957	0.12267653	-0.37929643
O	9.67520534897556	5.103105619127295	3.021236572645913	0.51632244	-0.48654226	-1.83633931
O	3.0092229000323223	11.826235587625817	3.3271184335179376	-0.27981314	0.06041397	-1.02666586
O	5.050269089899109	10.608335604137286	1.9864483584113475	0.33270146	0.21551005	-0.61857365
O	7.235979187973613	10.939746661007858	3.4859365684070176	1.65220447	0.30845961	-0.65031232
O	11.019019145594623	9.924555549659237	1.0744153275269925	0.29383185	0.28174286	-0.72126656
O	8.951179142525056	9.04886556619239	2.4744083468948324	0.21795413	-0.74348901	-0.05175004
O	3.6003228972505106	0.18661289540607998	7.99675840693854	-2.39908493	0.56842312	0.09363152
O	5.2807291339491	1.0370475813784064	6.332058435113866	0.17301512	0.69747192	0.22284693
O	5.697319146005805	3.5673955420736507	7.546448427458288	-1.41051608	1.14064731	2.0279607
O	8.296809182879315	3.2794355232077823	7.171728393838253	0.99255597	-0.35614982	1.35861723
O	9.020249143341255	2.9829555146414846	4.298858320747501	-0.80386164	-1.86766972	0.79066044
O	10.818619107290283	0.9342065961274816	4.789898317234688	-1.46955864	0.6050758	0.26266893
O	11.205019109774907	2.7893955166763136	7.233518362794975	1.28908757	-2.25158859	0.67125405
O	2.0655229121858185	5.764405603844729	5.377058415309915	1.03196543	-0.89437579	-0.17009887
O	4.535219119357612	6.268955549560493	6.5816183442658724	-1.12898983	-0.39356694	1.14610665
O	7.469279164383215	6.870555507780447	6.548688404891864	1.06224895	0.06688267	-2.38450737
O	12.114319077556727	5.059845569293996	6.6457483487819555	1.64209844	0.88672588	-0.61128784
O	10.118405350298996	6.3918155118227515	5.41515834620892	0.19763711	-1.07907623	0.10626288
O	2.8159891690637773	9.759215590281766	4.854236657550885	-0.01779733	-1.01610123	0.82264916
O	2.334739087501625	10.168835565936536	7.448878318517033	0.544397	0.0350982	-1.27141618
O	5.274169101546773	8.88986557837868	4.973068428721898	-0.44127574	-0.78479094	-0.12900742
O	6.187609162829476	11.01793554692723	6.079568328330323	2.54394164	-1.35780046	1.27249003
O	10.895119109404016	8.678765516798078	4.384058338188405	0.05547913	-0.61407618	0.42169728
O	8.344129101176575	11.185735615845894	7.895508435030826	-0.30770518	0.69759062	-0.64442872
O	10.466519103022787	10.719006735712775	6.059548337653665	-0.10047521	0.47964787	1.28946229
O	1.2861228169244379	1.5978355550071552	8.251588426586626	-0.64229027	0.43718533	1.03233879
O	2.5143691099407244	3.4413255282998594	10.164818407265214	0.06941406	-0.9683493	-1.0002473
O	5.448569111826729	2.8992555015778816	10.103118373609718	-0.66449265	0.70479821	-0.21585685
O	9.53955913529913	0.7939545430672768	9.321578397436028	-0.49018169	-0.46512182	-1.25789553
O	9.78142916546527	3.524615543590099	10.18451840985783	-0.33315152	-0.22552998	0.30841419
O	2.63016909675674	6.184965613011469	10.381618432060268	1.00965477	0.98937885	-2.06706625
O	3.8126590808248517	7.967825567854944	8.447398435477867	0.39002748	-0.51339522	0.58274781
O	7.407249153385259	4.918355534347974	10.649730165702728	-0.82395911	0.21329069	0.28871198
O	8.339779133823573	6.72718557896711	8.804698381604071	-0.72801167	1.52526494	-0.19659337
O	11.905719090907201	7.772425618851097	9.610868360832345	0.43482759	1.1615713	-0.92682977
O	10.68550538781304	5.6592255665486455	8.932538406275933	1.04478637	1.22479032	-0.4369149
O	1.8697891265362134	11.533887633957075	11.723218411188691	-1.60931861	-0.30651614	1.02353177
O	4.075809189127984	11.612135512361824	10.47871015390809	0.84403953	-1.60708022	1.14659302
O	0.023922915848594004	12.046184644913831	9.951618371110424	0.19333574	0.21529353	-1.33642848
O	0.8532771657314534	8.80853669452416	11.97501615111708	-1.99398405	-1.40536781	1.31900338
O	4.9511991701719715	9.142676645447418	10.630318373236419	0.36443235	-0.65439307	0.58504082
O	7.590035393485701	9.396785547194424	10.06645016853612	0.13186657	-0.38815461	-0.2677816
O	6.064209112999688	12.019753676346168	12.233567136495488	1.0463183	-0.23455214	1.92435034
O	9.689325386501851	10.738066716133714	11.010970087808492	0.35219942	-0.23366683	0.08853239
O	12.072088354419472	10.065545500390687	8.288098355345648	0.60969231	0.38176033	0.33992357
170
Lattice="12.510050 0.000000 0.000000 0.000000 12.512499 0.000000 0.000000 0.000000 12.491506" Properties=species:S:1:pos:R:3:REF_forces:R:3 REF_energy=-826.50698434 REF_stress="0.003398014244697684 0.0040233416318241665 0.0010626785448597153 0.004023988533037518 0.0021840314947629024 0.00035638215699021643 0.0010626228768398217 0.0003565607203247988 0.004016835563850964" pbc="T T T"
Li	8.517586155653989	1.762424340272115	7.561270532249057	-0.03178482	0.41228267	0.26199155
Co	6.058976104943023	6.609154307732078	5.1402906107725075	0.32867818	-0.53940655	-0.69652915
H	1.5089160942449251	1.231282288625092	1.903420598385859	0.65481341	1.47646364	-0.15661552
H	0.29010243484730547	0.3334039083046053	2.1846905920889492	0.56175468	-0.38278617	-0.39940881
H	3.2222461587202456	2.996735654555874	3.8598405335979815	-0.11877215	0.13646394	-0.45474395
H	0.47545309016569487	3.5675042887374833	0.359524407732211	-1.09982376	-0.29384773	-2.00903501
H	3.9869661374797203	3.9751642455493728	0.976124510662666	0.6702101	-0.17400215	0.27348394
H	7.586966147642633	2.034234348142572	1.516510562170374	-0.1967558	0.01813458	-0.36617147
H	6.17571614048768	2.8589943163275775	1.6342905998011152	0.00808536	-0.39697666	-0.13107542
H	7.392716092805853	2.703754248821165	3.2706005764783566	-0.24891284	-0.27267645	1.07239462
H	6.116946051309635	0.6231356930305054	1.902420528407493	0.14358621	0.69229	0.12009064
H	10.630566287354036	0.6289357366269139	2.1103605096162044	0.55607804	-0.45843191	0.13998583
H	10.02740635122759	2.83525435275277	2.320924456596281	-0.47934039	-0.4523611	-1.31079883
H	11.124666357960749	2.8146642855730097	3.337624501948272	1.22699139	-0.42998947	0.48855788
H	2.0759661457417127	5.842364245014599	1.3805906092113351	-0.22339563	-1.79213678	-0.12659084
H	1.8331360631254445	6.933454247187584	3.0636105743085498	0.93139615	0.217712	0.04082508
H	1.3430260730332118	7.175884282743794	0.903177612660374	0.99370224	-0.24462974	0.34261762
H	4.049466098127876	7.463984312528571	0.519524486830342	1.10058506	0.3098999	-1.02597896
H	0.6311201485468005	7.438534265771469	3.7626706066268127	0.93631314	0.55291965	0.9458087
H	5.30628616576699	4.8140343081443495	0.580524508398594	-0.41032496	-1.34180102	0.60211093
H	5.608176070324166	7.25947427982426	0.500224485330537	0.1210467	0.1281471	-0.18786332
H	8.270836048804416	8.16843435452098	1.652890577299076	0.54199716	0.22058365	-0.34095726
H	8.930346255096786	5.976964320471877	2.71796060731667	-0.77286324	0.69158268	-0.08720313
H	11.03569613187225	7.250664354692026	3.486310524311389	-0.18187767	0.1204821	0.00269721
H	10.091696374960295	5.2125143452407	3.2487005928988975	-0.50674824	0.75471159	0.99254592
H	2.7211458393175234	12.037534278647458	2.631960585100122	-0.46199442	-0.00635767	-0.02026262
H	1.4495361401191433	11.902317837509637	0.246524494740757	-0.2121478	-0.09561472	-0.3789558
H	3.208206129369563	10.411634310990776	4.153124483122868	-0.17284388	-0.27587237	-0.79825646
H	4.273045840581498	11.755234292459088	2.8836805470579914	-0.79679972	-0.06250538	0.09629941
H	5.309636107012224	12.01773425062867	1.06130459041881	0.61658822	0.49078887	1.38539584
H	6.337976120429957	11.011792927485507	2.874524398001752	-1.23420882	2.55859351	-2.02168339
H	7.194516114715769	10.657602881148236	4.093724498570965	-0.60155081	-0.62726522	-0.25847169
H	8.009326084315079	9.56155430090902	2.117370493009402	-0.92033618	1.33983783	0.9861568
H	5.9076061237085495	8.805194281641207	3.619440499382993	1.15404539	0.77607861	-0.61604057
H	12.183507374996488	9.218962840264734	0.6276685766555431	0.3110757	-0.50512426	-0.38601761
H	11.118206293132806	12.422034351319173	3.5141104960520004	0.01656666	0.21772949	-0.00917081
H	11.528596113362317	8.667774264376702	2.871430501770904	0.18419583	-0.44257724	0.75588325
H	10.185316086309843	9.416054337680022	1.6313605921302992	0.31429764	0.57989298	0.46612588
H	11.133896147905183	10.732334279476955	2.029460519510164	-0.01390489	-1.45153097	-0.24988191
H	3.9637661242647733	1.4504243120555635	7.331840538691089	0.19680843	0.19239126	0.44453206
H	3.9183661512486663	1.3363642537836866	5.8290205422912535	0.57003623	-0.61777474	0.67099285
H	0.1391459107722733	3.7196143547216067	8.007100504437021	0.2787437	0.16068468	-0.12385542
H	2.7981560821037563	3.8969357289897357	5.078560585587772	0.73331548	-0.5934343	-0.17331563
H	6.172126131378916	4.169564304517951	4.350600579501731	1.71593375	-1.18187594	-0.22972634
H	7.019296098057437	1.8949143079671749	5.428100532494252	-0.18038065	-0.28121043	0.84072027
H	6.072116161281598	1.107894287779356	6.605590494875077	-0.44769261	0.43153895	-0.54657813
H	8.54291613001769	3.1810442582866307	4.248240556661074	-0.06788749	-0.11082932	0.20694214
H	10.562096155444161	0.9550562446272661	6.051580582239405	-0.53746643	0.1164121	0.70408985
H	11.071796133562243	2.2213842900531455	6.772810539583947	-1.05549261	-0.00094665	0.32330353
H	3.652826074084177	4.571964257172576	8.21838058946181	-0.29655198	-0.01850602	-0.09708872
H	0.48814591220926296	4.487914300643941	6.631230560295938	0.33656349	-0.06107613	0.1335633
H	2.4346459236291915	5.454474286224881	6.56017050429005	0.36083188	-0.1151189	0.50102385
H	1.838645864539435	6.044844249947669	5.222830610714417	0.02463987	-0.759892	-0.26057839
H	4.66641611280181	4.254694339924875	4.70522057210896	-0.26856644	-0.16907787	-0.18242924
H	4.853506165501398	6.097244341792843	7.505360549586432	-0.40828885	0.23521102	-0.42033273
H	5.523266106131825	7.5581742727895564	7.33224051671641	-0.26496622	0.81666504	0.83819386
H	10.067596138532236	7.534624248943346	8.248390558461635	-0.22856321	0.03132594	-0.28745407
H	8.456166062539959	6.917344280127975	6.315230557098078	-0.3452322	-0.13902908	-0.68431745
H	11.797140353984236	5.867374352321277	7.999630583789221	0.14753004	0.31355129	0.97610711
H	8.78146614915561	6.3095943307386895	4.8013805608119435	-0.83620928	0.26855149	0.29296466
H	1.6002661071848723	10.429734265826141	7.673920558154649	-0.5990036	-0.47674708	-0.09249548
H	2.6551161680026163	8.808234318298632	4.2918244207644625	0.48960161	1.10540641	0.46081042
H	3.1985761429189092	10.488234325858926	6.203610580785491	-0.00758848	-0.7492049	-0.59697032
H	3.6200661306997524	11.645134314865961	7.150680597749923	-0.07319803	-0.84459313	-0.04200183
H	4.530056065110801	9.539684330248487	7.708170519069995	-0.65834752	0.71530937	-0.58195596
H	8.169946121775327	9.469304278429428	8.151360536358787	1.63493055	-1.18203723	0.07045461
H	7.434956152239415	12.15603427191901	5.6376105711046725	-0.06245303	0.29291959	-0.00099151
H	6.707476090945069	9.802154258421453	8.051950507598706	0.66813973	0.89474242	0.07365021
H	4.677906093517686	8.783644255569621	4.499010539580038	-0.17889974	-0.67857314	-0.1713333
H	7.826066108587784	10.788534292018925	6.265470517633667	-0.05474862	-0.01807318	-0.11048334
H	11.957096107778334	9.921562909340613	6.712460575993139	0.39132857	-0.42305678	0.32043145
H	9.723366094139818	11.884053843817757	5.0312305188049935	1.02851111	0.48786338	0.31629341
H	11.350296122342284	9.032562897519645	5.49382059455745	0.61998915	-0.343006	-0.65759767
H	9.98892606228414	8.514664324630251	7.017620575112479	-0.85835782	-0.45540142	1.24200206
H	11.00749610178937	11.25839287832182	5.526230556624267	0.36597879	-0.53633676	0.31866115
H	0.6429458990103134	2.6214843203419433	10.508930574910272	-0.35098345	0.9277188	1.45385252
H	2.772245891611315	2.685964353700861	9.065130571446778	-0.35665308	0.30925962	0.09368547
H	0.7944458596664681	1.4925143553125493	9.553390567319672	0.21086349	0.34948469	-0.09141464
H	4.618556163512408	0.2120356749812669	11.483606695440644	-0.40983529	-2.11123664	1.06506917
H	4.322245866449395	2.796014281299629	9.4147004979679	-1.33477308	0.12739309	-1.85762444
H	7.93236613193069	3.906014297466696	8.82841053492885	-0.8946227	0.99382019	0.4183284
H	5.529866158421616	2.295424247709781	11.263466634969244	0.0816307	-0.33668296	-0.63892243
H	6.168646085611498	1.27813433859546	10.208406673364886	0.74323119	-0.05205936	-0.36905547
H	11.657576357333944	2.768794341616971	12.351630586719336	1.07075344	1.05588992	-0.63358246
H	8.512736134288073	0.3068083423015885	9.683560555105823	0.18627859	-0.15678313	0.23371017
H	9.80360630678977	0.1670023166809556	11.59734660525346	-0.28472855	-0.20677602	0.27208674
H	9.444956052620785	3.9074842658010494	9.012210555684248	0.7360783	0.22693642	0.78428855
H	2.4793560924767193	7.242694268465154	10.058820513072202	-0.85465523	0.77698792	0.00467828
H	3.328546056962649	5.966074317574042	8.922860561361803	0.28298986	-0.33033771	-0.89430314
H	3.8850861650770114	7.069714355832797	10.665830512024504	1.7438937	0.86993058	0.94591168
H	7.735086142933049	5.949634270801627	10.09146056868138	-0.45654663	-0.12365959	-0.49271935
H	7.035956107223601	6.18667429734022	8.654010497428759	0.01256641	1.27248503	-1.55093442
H	8.055976061548169	6.121304249956596	12.109403669737222	0.89277747	0.11218348	-0.58117092
H	11.224096111929327	4.375534295557743	10.968666591349	-0.59092285	0.06087154	-0.29620656
H	9.366126097931007	5.582364284063299	11.288066657592218	0.73776678	-0.86632118	-0.11372284
H	12.329841310418422	6.83174427527401	9.195090577015383	1.3880874	0.75384478	0.52039106
H	10.762396070562497	5.318224312703527	9.798966706917318	0.47749108	0.66981616	-0.27851826
H	0.7297458815883816	8.355314276711981	10.864530526171047	0.11644014	-0.03215563	-1.71553605
H	0.7180458571294792	8.868144286672539	9.27879053821374	0.08752696	0.32164116	-0.05354314
H	0.4768110561159904	10.90463426293593	8.602740609622042	-0.63419901	0.2988321	0.14936554
H	0.7208458565674813	11.805537915165507	10.685730605477353	-1.20403789	0.78798471	-0.38189603
H	2.646626097327098	11.508062895812172	11.872630544318369	-0.13277439	-0.30308692	-0.25823848
H	0.927026120787027	9.688472828356911	12.407386674026807	0.94517134	0.89675204	-0.29388595
H	5.259386112630202	9.193012919188963	11.550530563946698	0.6733488	-0.02943512	-0.46919081
H	5.113246082986522	9.330834337408234	9.112170585457914	0.38341069	-0.23485707	0.3796578
H	5.103566056335028	11.171634341223406	11.789602626148193	-0.57653281	0.00686293	-0.86977389
H	6.669616050291032	9.907992854369786	11.034730544575131	-1.62614593	-0.6816821	-0.04894314
H	7.627996109919382	12.205991924039415	8.548600548458728	0.02683345	0.35209143	0.95674926
H	8.587966322029926	8.843214259356838	10.883226688265976	-0.23657584	0.71078174	0.93532836
H	8.550346349239417	9.327904285613416	12.422470667302802	-0.28118337	0.13767448	-0.34195657
H	11.664596121808282	12.339580864485635	10.258530590401989	0.14321723	-0.60687671	0.33484369
H	9.434556322780711	11.24118293751116	10.934006659203453	-0.17618333	-0.2938354	0.55429135
Cl	2.0663461673312264	3.7958342398825917	2.019580612590491	-0.31323463	-0.40440408	-0.33927064
Cl	9.530356160580354	1.7072543566140728	0.5364244952631539	0.05687536	0.06465651	0.33128242
Cl	7.232216151827621	6.362064242325996	1.4962104906922031	0.01068285	-0.01861547	0.27948662
O	1.2366581201176656	0.32633734960091687	1.788120499461151	-0.4270252	-0.96074736	0.15759763
O	6.713956046752845	2.0797843475096642	1.9946505643763552	0.32449967	0.9812108	-0.40093474
O	4.988336108951221	3.9054143231593055	0.890924444496762	0.05165598	1.1809768	-0.83365192
O	10.317546316225526	3.267074317717133	3.129324390618698	-0.70152053	1.25101797	0.83370471
O	11.367746266279712	0.1040356700264986	2.562470586495944	-1.18125743	-0.06484358	-0.01450889
O	2.151796065290632	6.791334285202703	1.3606005769145662	-0.53966039	2.22081714	-0.51534716
O	1.656836053832484	7.3162842766724925	3.9686005795889736	-1.20628091	-0.32145767	-0.36244178
O	5.433146081328524	8.155594278717894	4.160040530390194	-1.40998595	-0.04225353	0.93355784
O	9.545986342413231	6.046774302855177	3.487620508556096	1.66290036	-1.7722684	-1.02926145
O	11.712396147957175	7.954674332109025	3.602040580876059	-0.41494833	0.25918036	-0.15027169
O	0.4193980571847269	8.878012894310473	0.032080561050959	-0.869313	-0.61525107	0.41936444
O	3.339745929614156	11.496234330395101	3.165740503606845	1.15579382	0.83923907	-0.3892648
O	5.791886157658016	12.213434233075763	1.962400493587619	-1.57421429	-1.16401526	-1.71125779
O	6.65576604860304	10.262222940702545	3.3193244455117723	2.21677021	-2.69537832	1.81706765
O	8.679936082857276	9.101824331964758	1.603840555041389	-0.1918288	-1.8202824	-0.66640395
O	11.136796102644364	9.720464284251877	1.851750607638758	-0.15232525	1.46868378	-0.28621071
O	3.516046064007619	3.2062356716978777	4.7667705946907954	-0.89432188	0.44716871	0.86628277
O	4.295976137113917	0.8415113259223395	6.629750566653209	-0.92071464	0.77345115	-0.75547884
O	7.600556065386759	2.901454354167869	4.259830550765837	0.0815826	0.33521809	-0.83061732
O	6.971526096029046	1.371914264277651	6.306760566471913	1.03668659	-0.23786654	-0.33555981
O	10.2525460969424	1.6570743573937226	6.714860569060132	1.43077814	0.14893085	-0.66460224
O	3.490976048487281	5.535294266367494	7.968710608570013	0.23177293	0.24080833	1.10982817
O	1.9722459449531131	5.172384259762852	5.735640538270825	-0.46844041	0.75816069	-0.39099946
O	5.488286129237133	4.806344251635922	4.4998104956306815	-0.8863699	1.52142423	0.32793382
O	5.563216075773945	6.653124353902212	6.987820588330197	0.13395801	-0.66076967	0.37604837
O	8.037296054574597	6.624374260766983	5.44401058906864	1.00028537	0.0624299	0.59936541
O	12.285696095438379	4.273034284483195	7.280630610113651	-0.47417256	-0.16687873	-0.01024935
O	9.386656091129634	7.998604338283671	7.679940589689423	1.05319218	0.4289059	-0.99631418
O	0.6388220860590891	10.212684332159917	7.912370543352366	1.11473167	0.43516702	0.10196981
O	3.2665461230213872	9.553194325226082	4.6720243946482105	-0.47764184	-1.64827769	0.57911775
O	3.366916132363749	10.665434328890731	7.152570562622854	-0.13383516	1.45283503	0.49690924
O	5.251826164187797	9.072774314238329	8.16861055679252	0.44928659	-0.3309792	0.40516372
O	7.640166136964674	10.257244342638568	8.091020565972858	-2.08250339	0.53085312	-0.59853801
O	7.7935761320868915	11.268134233849091	5.388190545249935	0.6459253	0.22317832	0.67030785
O	10.709196081240455	12.130287929195298	5.166910509931851	-1.83898991	-0.36428488	-1.06283473