170
Lattice="12.287596 0.000000 0.000000 0.000000 12.290001 0.000000 0.000000 0.000000 12.269382" Properties=species:S:1:pos:R:3:forces:R:3 energy=-828.11614624 stress="0.0009602737426238195 -0.0014136061534021855 0.001027344306883048 -0.0014138140955202237 0.002854266621189733 -0.0008484985814617625 0.0010268501978130977 -0.0008486167769200793 0.0035843011909214846" pbc="T T T"
Li	9.413949059229651	2.9943755573982562	8.208628476873194	0.53330447	0.09307721	-0.41607563
Co	5.542749116649927	6.789225553787935	5.876148434440442	-0.01154119	0.49116512	-0.76653513
H	1.921569072344731	1.1186975931967715	1.2153284070993313	0.01556603	-0.28602037	0.31030392
H	0.9265041701440434	0.1653220218933725	1.9394484302186517	-0.17678003	0.22889239	0.28340126
H	3.5029690679139156	3.810715527470973	2.6397584908810496	0.46818249	0.31571254	0.97352666
H	4.390949166357663	2.89318558778839	3.6500084743069854	-0.19779811	1.05874062	-0.0529512
H	4.534969132746398	0.7776844755072674	3.4785484023450275	-0.01175997	-0.47948811	0.10309722
H	7.562959079498304	0.5591984898852996	2.1076684038163798	0.33844866	-0.24498473	-2.35734686
H	5.973229076692879	1.4392844833079141	3.4368484541834583	0.01326684	-0.39348806	0.09641047
H	8.379769174825968	2.1242455709424384	3.8147384222317924	0.303854	0.29289533	-0.34926342
H	8.72986540059573	0.9149514974580975	0.085143375486865	0.23049849	0.07836236	0.04052178
H	11.480839354403873	1.3742845111488446	1.9968584630080244	0.01780853	-0.73332887	1.26124715
H	9.220179073224893	3.5395754902648044	3.7198384342819035	-0.01305158	0.41259021	-0.73203977
H	11.661196323239928	0.7331844709329793	3.6075084397536736	-0.50568542	1.03120307	-0.06216124
H	11.251769070445722	3.438505593965392	0.5411123770227743	-0.2034855	0.54949016	0.46549715
H	0.0258728854978503	4.183345533213128	1.3682284624127217	0.38330816	0.12108829	0.21725675
H	2.210359162872042	6.322205513127934	0.4554623987584969	0.02311407	-0.98878657	-0.06647283
H	1.5169191140887874	7.680645509097314	0.3568214762764449	1.00947207	-0.32055494	1.31945415
H	1.1610591455554182	7.1121654875039395	2.50240840476206	0.37107645	0.13232064	0.05846873
H	3.7498191349889907	7.536895511582059	0.9374865369397194	0.14404827	0.02094615	0.14689793
H	0.1227946184129574	7.161925489636177	3.7232784008767954	-0.02471514	-0.17833349	-0.09877989
H	6.382049076481397	5.8146054866349335	3.4879884647558055	-0.19722446	0.08578197	-0.25240423
H	5.326609070204604	7.090325541102496	0.9990865636376974	0.12559355	-0.29982039	0.08686493
H	5.018629072017014	4.986765516760996	3.981578458450602	0.77617731	0.69998832	-0.19772157
H	10.15482537325882	4.572495512593554	2.0737866284761934	0.13642015	0.42143047	0.57712579
H	8.704405378331208	5.1562955121207255	2.277786573483216	-0.7802696	0.50857544	-0.27473977
H	10.35511528069918	6.2444555251588145	3.6023184912226633	-0.42780343	-0.32785019	-0.51303874
H	3.3470728940169616	11.76908556474772	2.4062484739879406	-1.30649779	0.40388364	-0.62031767
H	7.643539169559247	12.188727651282868	3.493148475995053	-0.01493402	-0.66746871	0.20079832
H	4.667572939229765	11.02428556800346	2.525458401705954	0.37508364	-0.52455691	0.07233601
H	5.583529068142089	9.175365517031592	1.6006584056198145	0.14857899	0.73965395	0.01719443
H	6.636539079388436	9.997475519706663	2.6158784702536497	-1.36846074	0.25752214	-1.5833907
H	7.562729055696879	9.941295589715489	0.8241424779999341	1.45821112	0.28579987	-0.31062287
H	8.563329151371295	11.053085587810868	0.4207064299600731	-0.38596596	1.56228059	-0.43585741
H	12.02307635379426	9.431916585567606	0.5312614130131699	0.53949682	-0.56944271	-0.27407423
H	10.307869104566944	10.143695561636966	1.3411284652073592	-0.13057615	-0.35429912	0.29199121
H	10.715769132025722	9.775125557748288	3.5042084648941265	-0.62801395	-0.65891126	0.45831735
H	11.185969115510035	11.219185566771971	2.0173884516096394	0.52492706	-0.39935735	-0.03726657
H	8.52860907371188	9.97489657554088	4.032286586781125	-0.40815197	0.21113375	0.00392909
H	3.963272867146511	0.0991599072331238	7.486568482969847	-0.96364204	0.914935	-0.09990462
H	2.556172915603726	0.8208964879694196	8.0145583880012	0.0480577	0.09290483	-0.10023046
H	5.154429128031729	1.3002155014002006	5.608998471723805	0.30195559	-0.70646807	1.20746556
H	5.4107290938634485	1.7270855833646392	7.165828436815242	0.35478085	-0.63386323	-0.87078286
H	5.25947910585298	4.025885547904244	7.2040984792750535	1.17035375	-0.47632139	0.40375853
H	8.598759083464914	0.48162252833133123	8.170518427152968	-0.19076712	0.45859323	0.58895427
H	11.841469122041804	2.539185503068206	7.783178458494542	0.12512005	0.52033723	-0.3831073
H	8.496249074660366	4.061325486589739	6.064868459348022	0.17555102	0.03243837	1.77282903
H	10.214869080864604	1.7013455280236418	4.6283584329523775	0.27929832	0.53398327	-0.11558164
H	11.114169127335238	2.238735533910237	6.406308425043142	0.11406695	-0.24574512	-0.42487817
H	10.535969159926774	0.3441014720583843	5.388728467500432	1.2476776	1.05630931	-0.1689299
H	2.5829729002371296	4.429615524254044	4.504458411320737	-0.04350875	0.24873806	0.18791914
H	1.9151728870031666	5.827825594985911	4.338808382449499	-0.35685404	0.73810466	-0.47363459
H	3.265649137598866	5.520765571652453	6.199298432581952	0.39606017	0.17964558	-0.40455589
H	0.5035728490930683	5.477355567273063	6.0752684781963096	0.44744771	-0.46609654	-0.31063185
H	3.643379061406239	6.341125478175157	7.516528473089107	0.29281357	0.18025768	0.02152998
H	7.570069174180832	4.146095523170042	7.419668451385485	1.26221995	-0.29975201	-0.89346651
H	7.049019062590022	6.82801550096509	7.833858489940583	0.38378819	0.20083163	-0.05427104
H	7.8777391563155374	5.9001655244840165	6.876998476334315	-0.04498017	0.04208571	-0.47757934
H	11.590689358816414	5.5468755560256575	8.130738391866418	0.00247095	0.61544312	-0.30828914
H	11.746169106077133	4.326765544199652	6.459018425719574	-0.01875204	-0.32078456	0.1063497
H	11.000855372421425	6.14539553563439	5.0361784538282075	0.14632086	1.033506	-0.86222288
H	2.627399073034581	8.198925546520146	8.129008409022747	0.69551078	-1.08382518	1.14425221
H	2.877449075919873	10.089785594843422	4.091486599691512	-0.70598736	-0.41519351	-0.06853077
H	1.92621906738605	8.725625586576044	4.377186518163584	0.01558298	-0.20517538	-1.00408932
H	2.567019053919984	10.609085579455051	7.48780842670163	-0.62652855	-0.36190203	0.35094153
H	2.0528291073043845	9.55816549865917	6.473298391196612	0.03085333	0.07985499	-0.27277916
H	0.3758171137022484	9.95959552420873	7.978568487468111	0.15738494	0.54008757	0.11657175
H	3.8775291605218354	9.100765579236723	5.296958398865579	0.64252249	-1.35347858	0.47211883
H	7.170709148977866	10.376396654096538	4.775586598414904	-0.33474667	-0.02933506	0.9529481
H	7.287769146230282	10.612885524885884	7.114578492581341	0.95965091	0.15600891	0.95202639
H	6.157249100841057	11.5740855253705	6.612828378392444	-0.05118745	0.19087664	0.06894291
H	5.268429145194989	9.39658553629159	6.133738462885432	0.01830222	-0.3764178	-0.19951912
H	10.34926908816487	8.459335552492128	4.41734837661393	-0.03509286	0.56210893	-0.33344598
H	9.228649159058156	10.958185517848616	7.405508480463137	1.34372868	-0.00899304	-1.65888238
H	10.935469140850799	10.864886589225764	6.8479384453752195	0.59788152	-0.09631782	0.25238583
H	10.273469118789322	10.484466566305391	5.508978470719565	-0.06761344	-1.74819952	-1.71469179
H	2.591619067324369	3.5017955353755816	11.439968465548715	0.23806017	-0.09459741	-0.94701047
H	1.510372897197255	2.447925485622868	9.455438400137485	-0.0208756	0.37118988	-0.01540635
H	0.4464728809161075	1.30869547923849	9.165388495017222	0.39867441	0.39519004	-0.07576992
H	5.576419096335524	3.6675955154105666	10.667668420233184	0.34735565	-0.76258996	-0.73169477
H	4.188609073486329	3.0942954782975485	10.197168421667177	0.32971354	0.08553088	-0.19144512
H	7.314585350490709	0.40784958470846366	11.800909264094193	0.32036588	-0.09712172	0.69792139
H	5.650739147621132	3.446455504057532	8.576258419720379	0.13063724	-0.41550282	0.88441116
H	5.762939154812658	1.5127155191010142	10.516040331738257	0.57088806	-0.85082943	0.06683802
H	7.8040591659175504	1.414085556714029	9.143568380911976	-0.33442621	-0.34294496	0.31389054
H	10.013739070469997	3.3405755471393426	10.539268480106903	-0.22337892	0.95739119	-0.82258301
H	11.259169152399277	0.30001256801988774	10.564268449911395	-0.56492931	0.59170709	0.43190109
H	2.1381090800473403	6.27733557952144	9.562978427983666	-0.50796658	0.54485531	-0.18181983
H	0.7033071114319068	5.6266855939741305	9.931588449054626	-0.30594619	0.03641641	-0.44340909
H	3.592619124256071	7.689345477954756	9.40514841234109	-0.59352435	0.33912536	-0.4780892
H	2.351079172417248	4.539715498839639	10.234768433183067	0.28154567	-1.0666763	0.39168923
H	6.798889067453274	6.281935481121919	9.903378440871483	0.57287725	-0.11313189	-0.14376236
H	7.252899159896864	5.169385592260382	11.887508279046115	0.12483722	-0.42595568	-0.97487486
H	8.001229129799151	4.425955561935398	10.566270322257306	-0.60624981	0.64120985	0.65591224
H	7.607609132299066	7.7054355473555995	9.669478380328728	-0.40186892	-0.19041936	-0.19645431
H	5.3048990994335155	8.020246628563886	9.95911848809453	-1.0595207	1.13368122	0.56179893
H	4.574189173897161	8.17674664188919	11.34386840935812	-0.21096288	0.31285717	0.05256683
H	10.142779105418779	4.754335541725028	9.687368488727193	1.28496402	0.81826525	-0.01954573
H	11.352515317687418	6.610105547693273	9.378958435189025	-0.25545611	1.62789566	-0.18692195
H	2.61665909954975	11.270626595250562	10.90126849438922	-1.1723754	-0.09797968	0.67779641
H	0.2966728292607807	11.76322360293736	10.479368376267015	0.05251712	0.56606132	-0.28714323
H	3.8628891039936013	11.403585480226315	9.330950307032815	-0.4378327	0.9426598	-0.40587068
H	0.704884101532065	9.754106583418318	11.64613027564123	0.61435098	-0.03309518	0.04412184
H	1.7596090925842338	11.67045154666038	12.25986843668564	-0.11389149	-0.36518152	-0.64596013
H	4.109149120697712	10.230885499427952	10.202250276943914	0.6207182	-1.10780192	0.60111222
H	5.60125908649428	12.203046608629515	10.443440313418549	-0.10140705	-0.13437952	0.17543883
H	11.702129378181114	11.051685510888973	8.810358471187616	0.45246323	-0.51361007	-0.22022187
H	8.44798536268432	9.20524558213303	11.127100332108082	0.2625326	-0.14545313	-1.33137125
H	8.672529141943267	10.397685516850004	8.72648841215122	-0.38715836	0.20245303	0.16248291
H	11.51246910161144	8.507575527292028	10.793968455652415	0.20379653	-0.07238815	-0.20348311
H	11.241269073715262	8.885285482076457	9.271048485479463	0.47654946	1.2072191	-0.98005327
H	9.43995538802256	8.457795492458047	10.141490334822574	1.6601464	-0.44846647	-0.0294614
Cl	2.0652491638217443	3.603155475700246	1.2536384477440379	0.27369189	-0.16163389	-0.1558097
Cl	7.087989174033468	6.027945525908882	1.4940683960118268	-0.28697164	0.063492	-0.10034739
Cl	10.654369119548072	1.7348655227419814	11.98126844142028	-0.15205245	0.00881207	-0.14185331
O	1.819169160402403	0.1694733384547971	1.4953783979140869	0.52941703	0.40765028	-0.59519346
O	4.014699160640232	3.868465505098839	3.5428684283097653	-0.25926575	-0.93424384	-0.65829384
O	7.9902653991869705	0.3054205371907198	0.3095374870382015	-0.60353403	0.44550028	-0.41339152
O	7.473889120574166	0.742329583629177	3.0326584526276856	-0.34397862	1.16708157	1.91526966
O	5.059809107642425	1.5298845276957935	3.8395184020193565	0.01281416	0.36602124	0.26733997
O	11.741957286717376	0.6225844162038461	2.6148884538305595	0.22296882	-0.58647083	-1.64692267
O	2.16407916043137	7.135205552509868	0.9754434647742075	-1.60695236	1.28407068	-1.45419369
O	1.085222067639255	7.2780154878432795	3.4720884500966536	0.10999705	0.13631042	0.44889292
O	4.69974911584168	7.814955556790702	0.7718865671465108	-0.05198598	0.48275628	-0.40597793
O	11.3589691318553	4.232085588156565	1.1545384049924106	-0.20856808	-0.51290663	-0.75088092
O	9.516435352973476	4.9724155886116534	2.777186610268733	1.05157399	-0.849644	0.2205741
O	3.9153728680188755	11.369785519283601	3.0743084644050436	0.50960961	-0.10878057	0.55775343
O	5.990529152052982	10.087775565168423	1.765398414437755	1.19418708	-0.98412787	1.64908578
O	7.635399128560722	10.443416610831473	3.930286552930704	0.74274395	-0.28175318	-0.76676644
O	8.52857909197708	10.08962557902949	0.4775394337201001	-1.09070635	-2.32793757	0.46697792
O	11.167469156378072	10.223085527348866	1.840058461973436	-0.72011888	0.96397219	-0.16338076
O	5.318559097286444	0.9238965289368755	6.560718473183274	-0.42932939	1.05154857	-0.48332914
O	6.005229172050818	3.498545567492631	7.646198416932752	-1.34472214	1.03602615	-1.28200211
O	9.120309177346321	2.6746355712608474	4.179278443948835	-0.70296512	-0.3989999	0.84600428
O	11.004969136763265	1.2069255444781304	5.024418373999632	-0.99561134	-1.74005098	0.84307205
O	11.182169176375908	2.918795492018056	7.126838427027301	-0.00422532	-0.43610366	0.76656136
O	2.0831728346905205	5.139595489966778	5.008318491109818	0.6160896	-0.70971476	0.56408631
O	4.074269058535385	5.834405538658778	6.738658496486054	-1.1773798	-0.59092354	0.57046362
O	5.734119089359042	5.741745567191557	4.237238390433622	-0.86244073	-1.06401987	-0.00357951
O	7.260129058642633	6.685155545327325	6.8162584106116055	-0.13698245	0.13435552	0.49271839
O	8.5520590909851	4.295245501355435	7.062788450157521	-1.9695139	-0.07306873	-1.2415067
O	11.87436916094763	5.30622553667403	6.342558434560083	-0.65563634	0.75963918	0.28477435
O	10.868905388933456	6.796385585511305	4.240018386977726	0.15913092	-0.57957473	1.58483798
O	2.4612090882719064	9.457855493125916	4.758086533666085	0.73323678	0.8774689	0.21404001
O	2.085869101931269	9.721205513153865	7.4440884475089835	0.25692795	0.3264873	0.08530021
O	3.06357285941859	12.274937584388534	7.930738388042833	0.95356064	-0.98215567	-0.22413188
O	4.724769119285206	8.645955531739759	5.729058422217771	0.154931	1.1460324	0.09561306
O	6.440749135439428	10.632985575835848	6.644598470418985	-1.92932126	-0.48223485	-1.6171684
O	10.168869112742012	9.454015482291593	4.302818481916409	0.45154933	-0.50330447	-0.75682136
O	8.482539066290782	11.040385592305173	7.995958495861555	-0.77742743	-0.41851401	2.07538284
O	10.270069140912481	11.158946618127407	6.177188392983118	-0.05939299	2.01089761	1.49362367
O	2.795229083266074	3.561925594610664	10.43876837819009	-0.87881479	0.43983625	0.87663304
O	0.9518728955685769	2.0714655468472696	8.731638485191153	-0.14736147	-0.99602895	0.23318177
O	5.224999127823903	2.9444755721538316	10.053378382392262	-0.56844245	1.15235548	1.03778804
O	6.266169057094947	0.6131165680795502	10.617730318308821	-0.18899842	0.95250436	-0.30188417
O	9.625739173733592	3.949775537677906	9.813888391469535	-1.12653141	-2.0979523	1.35018065
O	8.554299119777829	1.4168254895525747	8.530688463129374	0.1581212	-0.47535131	-0.47729966
O	1.6262790891636743	5.770595484403306	10.246168406653759	0.66458131	-0.26890869	0.52119662
O	2.985489117407733	7.358775542874463	8.64347843678391	-0.23108411	0.80432497	-1.10986298
O	7.148549083556872	4.855735547453181	10.917950314061127	0.27841128	-0.0418957	0.30641484
O	6.922179121746225	7.039945508416277	9.257308495498526	-0.45247689	0.56280311	0.88536151
O	11.460183290761432	5.6968855884859275	9.096298378769065	0.16214024	-1.78331165	0.43769924
O	1.675149071137706	11.197376591173224	11.355568491909352	0.7186523	0.44948594	0.08479188
O	4.065509108307055	11.200185593817782	10.264140351829298	-0.02360253	0.1777272	-0.16903409
O	0.2586471424635735	8.968376581610586	12.062310285241823	-0.67243244	0.41945997	0.44400764
O	4.4753790831934275	8.491626547103468	10.382068497223353	2.04136132	-1.57384287	-0.31162701
O	11.886469125583197	12.238685645332344	9.908548390310045	0.97494161	-0.9867717	-0.27152078
O	11.054769166895944	8.227375547097077	9.943058480695795	-0.19658185	-1.39907438	1.16726801
O	8.573655401491061	8.877465477295626	10.147320254311923	-2.19222963	1.0288211	1.40808575
O	11.735956393346532	10.236785560241627	8.193128444063005	-0.48168647	0.07325232	0.11969917
170
Lattice="12.535160 0.000000 0.000000 0.000000 12.537614 0.000000 0.000000 0.000000 12.516579" Properties=species:S:1:pos:R:3:forces:R:3 energy=-826.62807842 stress="0.008650256195275022 0.000975478795352548 -0.0017640181009436935 0.0009752345775834704 0.0028670469287626747 0.0024239179186504828 -0.0017646460466938306 0.0024244931486145428 0.0057998262235034615" pbc="T T T"
Li	10.133521077730823	3.428441769281375	8.471686987554932	-0.60077098	-0.03307869	-0.15284903
Co	5.810131142138549	6.858661748292546	5.80321694522621	-1.1127777	0.36662269	-0.25700586
H	1.955341096920215	1.5220318065327374	1.6178070035945509	0.22733684	0.52035323	-0.55657176
H	1.2303101852170724	0.44787276864557146	2.390856952795525	-1.43622673	-0.69978582	1.56288252
H	3.496911094443732	4.119251738272824	2.5482369116192447	0.11508455	-0.02239569	-0.18312926
H	4.147981176119605	0.590078268189872	3.757846984859171	0.07398379	0.75822172	0.43656979
H	4.387761117317438	3.255861769517896	3.5156569401899787	-0.46499932	0.24498286	0.04295818
H	7.146921120832589	1.7441417740016272	2.035186972412749	-0.09557831	-0.54016938	1.81717695
H	7.419571135319003	0.5423987268683059	3.1524269461334824	-0.10729214	0.37341275	-0.31639924
H	5.460171153506599	1.3301782349633855	3.79306701081293	0.27010703	0.57768407	0.004377
H	9.10394117711803	3.540871815781916	3.772806925162096	-0.05467098	-1.24233059	1.0616225
H	1.8494711389898968	7.5942918050832136	0.555048944308743	-0.48638738	0.4068711	-0.38356329
H	2.4136410968117166	6.126531817076632	0.7748299318906097	-0.1879833	-0.23344931	-0.00351653
H	2.0809411463965684	7.2392717247559935	2.6704370227075707	-0.43307804	0.27314561	-0.06844155
H	0.7198881115032726	7.36009181686806	3.626176955318196	0.5259178	-0.07661808	-0.54132774
H	4.154371099413742	7.512771740276572	0.6898880464690041	-0.9429336	-0.14542007	0.29665646
H	5.729971173956299	7.356451771526088	0.7469880537187177	-0.64913649	0.87002398	-0.16204024
H	6.562741161336128	6.161731793998935	3.3637469766902477	0.09546809	0.14481524	0.10935613
H	5.426271191451058	5.1863018239010055	3.730397000773577	-0.93495136	-0.46577863	0.1601041
H	10.276201411225848	4.696361725887255	1.301087991012988	0.01781287	0.20773754	2.00157154
H	9.277121435799675	5.598021756994474	1.9556880465046431	-2.44375959	1.65869563	-0.27602101
H	11.18365112007386	6.21464177694129	3.0944069703324137	-0.22398311	0.31088015	-0.07996821
H	11.257551154573868	7.846501824410671	2.9664369666889363	0.31505859	-1.09731814	0.66831698
H	10.139171175866416	8.35573179312791	1.445616927917698	1.02252744	1.10738431	0.16139832
H	3.228790910820475	12.165191763569922	2.2567469413579366	-0.03660018	-0.22808303	0.24230477
H	1.7738811141836341	11.92847635394823	0.1954880601997869	-0.25745971	-0.42435162	-1.15612251
H	2.8419910889972053	10.4566917919921	3.9181879907603605	0.05363503	-0.09407437	0.00859602
H	4.524990912428211	11.188791758311629	2.472386943966602	-0.37061365	0.22419292	0.32669674
H	5.964181116692601	10.755791733739745	0.9845860159100714	0.16478896	-0.46430092	-0.24951683
H	5.6995811821251605	9.356801809816268	1.7307670006193827	-0.04590134	0.563942	-0.37414675
H	7.081671099021596	10.871745351152377	2.826687986111804	0.04988712	0.13505999	-0.32145424
H	7.921691172392604	10.94695536043544	4.148588043906439	0.4774766	-0.06392515	0.93889631
H	12.52210539199562	8.880545388607123	0.8228489107950296	-0.32324986	0.16957999	-0.3431243
H	11.791221437912276	12.171591713782655	3.037966962289679	0.6022389	-0.18707798	0.3690691
H	9.14465111568802	11.390991744710847	2.528476988462454	1.44497837	0.56040796	-0.39672762
H	10.180861113265534	12.077791808760601	1.3858269826901384	-0.44159992	-0.0861649	0.33260996
H	10.48725114116257	9.878491784255633	1.778496971716309	-0.24550625	1.27046977	0.37595681
H	8.298311190568727	2.163481817858515	4.204897003367776	1.16347677	1.55037254	-0.21969293
H	4.898061098570305	0.883591825468044	5.678946967480231	-0.01448213	0.39807505	-0.24642949
H	5.712801138190164	1.1692637323513684	7.053046917039273	0.44339813	0.53516249	0.45004183
H	7.073481126714122	2.8529718268954207	7.9479370005185475	-0.10327721	-0.07474345	0.10482442
H	12.212250395099513	0.316478202513165	4.316686950594232	0.09661963	0.7308354	0.24756081
H	12.321851067426413	2.5462218094879723	8.028886973422008	-0.65031818	0.58456816	-1.28350007
H	10.446651135948057	2.0567517466062104	4.714137021113769	0.63174997	-0.7046399	0.5152221
H	11.57545109197324	2.5540917948894424	6.57620694001411	0.08057234	-0.49112907	-0.6523174
H	10.789351135812225	0.750980734692881	5.576636951969568	-0.43907779	-0.06188738	0.38875417
H	8.65979111683122	3.698931754540869	6.161946978825793	-0.02860558	-0.46008954	0.15056101
H	9.592521110133585	0.3720783811949435	7.623017000256259	-0.85123552	1.86606691	2.23937998
H	2.061490839627537	6.320061792953755	4.643526994064382	-0.16984048	1.74219287	-0.82584242
H	1.9524908521802962	4.862921790504701	4.5687669701049645	0.1821935	-2.14142501	-1.16307502
H	3.3791611890802034	5.745031795427271	6.27145690603436	0.97702118	0.53419722	0.44777446
H	1.2367908630714923	5.45837179922007	6.6353370112004795	-0.86426442	-0.67961616	1.98092068
H	3.7999611288894917	6.803551790300572	7.453836911480492	-0.35443746	0.29108138	0.16530734
H	0.2782908366034132	4.436431796392519	7.552186931749281	0.80832787	1.02259706	-0.47849128
H	7.439041122289642	7.271341811831675	7.816216904661853	0.57414894	0.21632106	0.13901256
H	8.25708116819955	5.041271725400025	6.613067013305067	-0.33858617	1.02271806	0.48049992
H	8.357761068375817	7.241461795090908	6.307276976782023	-1.03040225	-0.35386338	1.7371593
H	10.614011445072588	7.232911769530486	6.743146936658775	0.31937882	-0.12649397	1.02017247
H	10.673671412165636	7.380161777886628	5.183696980335877	-0.35587301	0.04233219	0.06538418
H	2.6659610869820516	8.70044181770456	8.105426980071062	0.2555131	-0.09772781	0.14588921
H	3.782690811841277	12.534109287012775	7.640186992900853	-0.39524581	0.15300368	0.08176268
H	2.2043610808005023	8.981201738351265	4.288487974425467	0.28872976	0.84070339	-0.25856373
H	2.2461411460018903	10.722091756902564	7.6601469309889465	-0.44692719	0.04318439	0.15471337
H	1.9069711726185425	10.128611783404306	6.345356915855499	0.09556325	-0.30068215	-1.71086566
H	4.142521111013553	8.83457171498517	4.9796070264322365	0.30836441	-0.11425882	-0.32787815
H	5.675161185719449	11.263191712383225	6.8043670261948765	-0.19677349	1.12054928	-0.17560593
H	6.90623112699988	10.326491809678737	6.483096985514365	-0.49380817	0.40178078	0.31028252
H	5.352841100109196	9.449551815079644	5.766087014493523	0.24835842	-1.07706625	-0.40649168
H	12.28672742302629	10.279691781947704	8.106076966014895	-0.57168485	0.70557883	0.30791094
H	8.886711111766717	9.66496180724355	5.829906922639174	-0.13395667	0.70799603	-0.16716612
H	8.895401111616962	11.213291759701955	6.210256968190335	0.11425653	0.50676167	0.20239664
H	10.337151120958046	11.63778538960857	7.373407002431573	0.86209319	-0.65547224	0.63661784
H	2.357890846203764	0.318963408271046	8.399417011807847	0.50298868	0.17428729	-0.26022574
H	2.744471177370881	3.5232217395546326	11.565866907145555	0.02199528	-0.23477631	0.77702204
H	1.661890864256371	2.2991018105095424	9.613787014849063	0.48064662	0.18577984	0.51218521
H	0.6708909277821898	1.023060740102786	9.583166956817868	-0.44816323	0.17328272	0.62735038
H	6.2839811336841835	3.979431770458683	10.74826694889061	0.29964231	1.28303598	0.08668632
H	7.809001335171231	1.9175017387040514	12.45371891829249	0.27332276	-0.07179615	-0.19935512
H	6.33817138359778	2.428301792766157	12.148196861724337	-0.29712307	0.28929397	-0.56977002
H	4.850141186521967	3.3094717274247474	10.451366937718388	-0.49764128	0.32865606	0.35580788
H	6.371031178054945	2.320061816714026	9.26651691058621	0.02528699	0.17084308	-0.30695374
H	11.718351166827626	0.1522338351184035	11.261366954412827	1.21404774	-0.16320178	-2.23797966
H	8.431711118165264	1.7786817709466576	9.183106929259846	-1.37623964	-0.07081059	0.14746442
H	11.788951069685984	3.846491818080103	12.395410936010242	-1.71964737	-0.2485752	0.30781685
H	10.476451097785759	2.85138180674501	12.38340590966111	0.3448058	0.43303669	0.22763564
H	9.729621166335669	1.448821797363171	10.084766979950778	-0.40240738	-0.30044436	0.51807607
H	2.1654411631156387	6.543301775531906	9.770746917283892	-0.13477934	-0.09340127	0.41900116
H	3.8952710917619786	8.214691790139218	9.197436910145225	-1.36851191	0.09369427	-1.02763026
H	2.6130711092422256	4.349321836584609	10.317666969406545	0.0470741	0.31873432	-0.0653314
H	1.267789186230049	5.445621798496533	9.379876937473643	-0.4184456	-0.36462044	-0.9240231
H	7.515821109859386	6.707431799891092	9.930146926781125	-0.15596756	0.64555847	0.49028892
H	7.380811166279056	5.87039175740579	11.928606877136943	-0.30269227	-0.26982751	-0.22096022
H	5.843201151233277	8.25071536289562	10.02848693378677	-0.72722942	0.91299277	1.03559787
H	8.267131107586401	5.220741770689907	10.80870587873569	-0.28317623	-0.28332598	-0.01668867
H	8.006631173236801	8.323521786285013	9.845156977696428	-0.19084069	-0.37276738	0.29938427
H	10.476551128364635	4.587351814987017	10.628666906743414	-0.54658847	-0.25773719	0.53879613
H	10.214431149903032	5.583891741147489	9.507396970104589	0.36327356	1.23916414	-0.85692832
H	11.217021346256814	7.419801825271528	9.481616947979834	-0.35781248	0.12701263	-0.50482284
H	11.973304418113779	6.381531831547373	8.52511700869658	-0.83735856	0.39796389	-0.16264623
H	2.4538411050623314	11.28666538472835	11.343866980450978	0.13577136	0.08589818	0.42828648
H	0.6432908865701191	12.112725361394965	10.856966928276616	-0.79405312	-0.03365823	0.21355474
H	3.6607911416736756	11.763191740757225	9.668425887183771	-0.42973187	0.55193578	-2.04186477
H	0.9092171664446709	9.7632653484289	12.365322832583573	-0.12073624	-0.47899898	0.14424277
H	4.886111079591242	8.60950537824119	11.401666914794458	0.77959767	-0.3695886	-0.97530503
H	4.260031093409705	10.377791712289001	10.271035953939675	-0.14658826	0.77427185	-0.0745114
H	5.6096011693952255	11.618495268152811	11.060235919768239	0.12483197	-0.19609212	0.3987624
H	8.168191338357426	10.402291713679327	11.136215934675963	-0.22611291	0.37649533	0.42938345
H	6.663981132472815	12.31386228354128	12.03884088843661	-0.45575813	-1.10712084	-0.78599944
H	12.045351129169347	8.603121726926073	11.083466940593896	-1.40693353	0.47065667	-0.22093776
H	11.724401387278716	11.366891818568902	9.181426954035862	0.17444471	-0.28344161	-0.21659397
H	9.666181347017822	9.642381815992271	11.163485930356545	-1.47929783	0.24296452	-0.65411902
H	11.348851119679182	9.409201762639409	9.888716925357034	-0.01216613	0.71198582	-0.76922182
Cl	2.1998411527139514	3.7617818082579353	0.9227529895037678	-0.26844774	0.12623643	0.42783325
Cl	7.336801096067414	6.660151832313364	1.523666934648867	0.54993501	-0.22047168	0.05538957
Cl	9.84915118980772	1.0287898026144584	12.385166992316563	0.28590068	-0.09384868	-0.39546711
O	1.8120210941971209	0.5569907537746089	1.6401770089556147	1.26308784	-0.03526326	-1.27384514
O	7.166251090063125	1.5158417359708314	3.0637069313618563	0.0019563	-0.1617274	-1.40623624
O	6.869131439936371	1.81889177824354	0.175562542703752	0.17460186	-0.79009185	1.25545381
O	4.082441090700194	4.187931782290641	3.3473169641919935	0.42462251	-0.3115811	0.28021785
O	2.5085211036872854	7.066801805239484	1.048510938152946	0.39213225	-0.52103966	0.30326085
O	1.7197710892957025	7.518071765652563	3.5667670134269507	-0.34578555	-0.04932986	0.4553043
O	4.971391159333292	8.024071794367051	0.5712880789783142	1.32923056	-0.10701845	-0.22646182
O	6.06831106902723	5.805591728653293	4.163947012745653	0.74453242	0.08855328	-0.4062856
O	10.014941344758082	5.10634181434839	2.250588033529641	2.48388526	-2.21418792	-1.48237719
O	11.521551156371267	7.0354817182063645	3.5523769529627085	-0.10649269	1.109132	-0.29466896
O	0.5499950732482094	8.835885280756802	0.012519958406311099	0.67407932	0.26664777	-0.05255141
O	3.769790878417711	11.669991760543539	2.938036974262556	0.13113234	0.04264917	-0.48989288
O	0.0774800762702652	12.354191774295295	3.5852670177486483	-0.51767056	-0.65134646	-1.09728019
O	5.934241137114797	10.320091734089868	1.8762070193044074	-0.46015544	-0.14889107	-0.07984266
O	7.812131113984948	11.390755285319294	3.2878879971007753	-0.49566178	0.15119259	-0.80349803
O	10.882951177473645	8.983341783608115	1.722187010928657	-0.79923991	-2.45516676	-0.38587249
O	10.150201114082394	11.496791775790012	2.1890569070071284	-0.77617579	-0.4610775	0.02598032
O	4.551551162096715	1.4399782662695428	4.179376950587399	-0.03012653	-1.19164539	-0.7540646
O	5.188951150102647	0.5250457920821575	6.559757026155357	-0.59005041	-1.21780229	0.44997225
O	9.051541073441165	2.837771725731943	4.517416954049903	-1.16557785	0.30648645	-1.32279255
O	11.218551137214945	1.514571801094352	5.144937015529135	-0.32822477	0.8907587	-0.06020086
O	11.701151172028469	3.09592181560712	7.391266908906791	0.96656498	-0.64743393	2.18565292
O	8.422531118900455	4.177241836849505	7.004456931804067	0.57178593	-1.1110375	-0.45739557
O	1.9294908387288379	5.54596182425081	5.207076948450803	0.25779653	0.21230195	2.24761001
O	4.169701099005311	6.148781818339275	6.786807016950822	-0.2904603	-0.69611583	-0.733545
O	0.8918908172300939	5.2471417220375995	7.62510701860599	-0.45445873	-0.33108235	-1.45166283
O	7.494191189424345	6.9441217581572765	6.857076968550681	1.11802106	0.36070635	-1.57479665
O	10.127141433268099	7.597561740073189	5.996347007121375	-0.63140354	0.17147324	-1.13282755
O	3.0603908101523776	12.164463328222666	8.234267011115962	-0.12034269	0.40234007	-0.43237539
O	2.668851193531597	9.808981750220807	4.647587998098221	-0.1846007	-0.94027235	0.33865931
O	1.6472511759403197	10.022351747283992	7.263126930121443	0.2430265	0.19710305	1.6825872
O	5.122111168564275	8.60969181255468	5.1078470126832345	-0.16468331	1.35101805	1.11511115
O	5.96519107455475	10.342491810586704	6.8525870213569124	0.55652272	-1.31842638	-0.41211669
O	8.405011101459861	10.523791720574208	5.689236972184373	-0.00044232	-1.68363504	0.06509953
O	9.78261117465437	12.305269379342517	6.940637023658415	0.46703239	-1.31087677	-2.44291297