197
Lattice="13.323687 0.000000 0.000000 0.000000 12.978359 0.000000 0.000000 0.000000 13.021064" Properties=species:S:1:pos:R:3:REF_forces:R:3 REF_energy=-1149.3219759 REF_stress="-0.0020595861012828484 0.0016875572236536285 -0.0028185574557598736 0.0016872168554364665 -0.010706784743516337 -0.0058793352603638245 -0.0028172307356140393 -0.00587963176949636 -0.005755089601417307" pbc="T T T"
Li	9.818975235423746	9.724341118697362	7.841060051431807	0.00812311	0.53512705	0.02699859
Co	2.2738752520392143	4.44438108450101	8.914000029398956	0.89910436	0.48857732	0.83483705
H	4.044975164380098	3.415281042520248	3.053360100614051	-0.33343879	0.33952958	0.20860657
H	0.716395218914396	3.3193810913741	2.920450062917553	-0.1924095	0.2782986	0.43441095
H	5.818702241402514	2.407861089965788	2.0212600391119815	-0.26647519	0.03474126	0.82582193
H	6.723603654389591	12.894170241250901	1.8512359322291159	0.67451364	1.07802611	-0.51254409
H	7.643635180314358	1.0380910598629627	0.6227959328970092	-0.64011343	0.74736928	-0.59127486
H	8.168415255938159	0.9528010471218819	2.3464859849921433	-0.61300985	-0.19768175	-0.61279071
H	12.47668260500401	3.8739110775712584	2.424740106170866	-0.75627805	-0.42385816	-0.57915779
H	1.8587852309102681	5.447431093739339	2.752680032439307	1.38448484	-0.3248564	0.16113549
H	0.828175227014814	6.9019160654884235	2.651499984138603	-0.08823643	0.65503637	0.41987038
H	3.936535138237112	7.751481143943314	0.16149999748698818	0.11568946	-0.42858381	0.15333483
H	0.44980515512339403	5.441111151957917	1.6669499840591142	0.63198917	0.65258543	0.90007458
H	4.121155212405834	6.325523124784258	1.2787300832711457	0.46368528	0.94779625	0.08709154
H	7.9997552271952745	7.073129045547304	0.8843159320849234	-0.81565987	-0.27048934	-0.96506765
H	7.56411315177808	7.653045091631758	3.9858199848546993	-0.04785636	-0.81050693	0.67208248
H	11.561595232999634	7.130310268430816	0.213745975462986	-0.47289669	-0.0435571	-0.01299151
H	11.622592539522449	5.831098126224429	2.5597201024257514	0.82709006	0.06401584	0.70318033
H	12.084642563077065	6.961483100138154	3.8826400313204124	0.4902428	-0.62708938	-0.02983114
H	0.33353519760605	0.7465510397297092	4.097630039246557	-0.36627921	0.12839314	-0.11398702
H	0.200465136172298	0.2046118788977354	0.1546300840731042	0.3129264	0.17154347	0.22276701
H	3.4341752311119143	12.451851148437564	3.015029994252318	-0.94052717	-0.17927012	0.96855767
H	2.806195202362674	11.445051042317063	4.472790073173536	0.34114092	0.32609542	-0.55964364
H	0.12112524244277802	10.447251038930181	2.4849000264794845	0.19433666	0.08615615	0.68184646
H	6.830331186991055	11.591270298286359	0.3893160139630646	-1.4000505	-1.00252266	0.36639892
H	4.955685172126079	9.584511108947455	2.156850072219483	-0.71091627	-0.51991276	-0.11287836
H	7.744255134611662	10.891710263170653	2.542935950813742	-0.90102746	0.03594429	0.29790233
H	9.269555264980506	10.493780273524916	1.9555259314770759	1.5420886	-2.0247392	-0.99019843
H	9.220645207666971	11.797180272668278	3.050125928715377	-0.24885856	0.0956843	0.44675674
H	8.46639526105919	9.58091026319574	0.1675859126320133	-0.12795109	-0.55015333	0.24397532
H	9.78881520367761	0.3707910725689415	12.900409998667573	0.29227213	0.97256202	-0.12962634
H	10.33338521867038	0.23822102715514248	1.6368559611555877	0.68401417	0.98475664	0.86272859
H	10.521065210887384	11.901770273547474	0.4455059420412825	0.17639122	0.00092706	0.31829411
H	12.491062594341082	11.729061148243474	3.262870063507278	0.69573664	-0.50211702	0.22382582
H	4.5695752369871245	1.1211711176045758	9.369104188412901	0.27312409	-0.34745318	0.03597891
H	3.3839252105565625	1.81939113713598	6.051411017924931	0.54542907	-0.2639811	-0.26902151
H	3.803055240178936	0.3408510362324851	5.201680073748175	-0.25780966	-0.16238265	-0.66958618
H	13.112302569345285	2.652821130119953	5.2788000602446585	-0.26773647	0.61172161	-0.80685496
H	1.6270952338948261	4.811301101880316	5.107980105924613	0.64885063	-0.93345653	-0.44393899
H	6.482178172227843	2.100311095744014	7.985000102308302	0.61706076	-0.4375844	0.23676019
H	6.545507257282531	0.7915811440567162	5.0242700286815385	0.16228495	-0.23682249	0.823972
H	5.757992193580044	2.9531711200249857	6.6693670212996885	-0.0830484	0.59439031	-0.06561081
H	8.199895265395012	1.326101096085568	7.280598035703881	0.29817443	-0.25809486	0.99507459
H	11.48131255514969	3.2532611533958433	4.767630063893275	0.79593709	0.00521898	-0.4329482
H	11.481895199999693	1.1137311434267816	4.1797999850290655	-0.59772703	-0.02981691	0.60838197
H	10.20966518810645	2.2777610858692237	6.209342071955491	-0.54291432	-0.66484498	0.06639949
H	4.862165144370486	7.894491111257053	5.246150002460266	-0.49213514	-1.97569979	-1.00113672
H	0.90818516898368	6.362884057110529	5.073090034484816	0.21340838	0.72469248	0.16646723
H	0.058715225344941994	5.105011103666793	5.864657057267311	-0.2948795	-0.42760837	-0.02812825
H	7.425864173051949	4.579111118231472	4.303250089453537	-0.93622769	-0.52684757	-0.07282003
H	8.838095228564422	6.610260537958555	4.680450003280857	0.20985766	-0.32113397	-0.24233875
H	5.65512519940273	6.669648211684559	7.495070065700526	-0.62247429	0.59273541	-0.27313951
H	8.17176523066114	4.81074108568213	6.0183850420202605	0.61007417	-0.68302099	-0.21568643
H	7.062440213975226	7.526612122918676	7.759310034966201	1.24933024	0.18112032	0.72407184
H	8.630255164942476	5.974960122817678	8.01951998489602	0.26065463	0.27100907	0.77607531
H	11.212992543786672	5.418111033620434	4.186740081978395	0.81746883	0.02655287	0.12683061
H	12.83856261518482	8.447541045374464	5.997946007928828	-0.22155032	-0.4549456	0.83387632
H	12.143915251502822	6.0609170934365055	8.563169983934781	-0.08588393	-0.52814884	-0.39739645
H	2.2403952238667464	9.169311076321383	8.705310002911474	0.07237662	-0.70015588	-0.45624363
H	2.7396352563503603	10.841971091002401	8.716890025838635	1.14211002	0.80098142	-0.17784381
H	0.761055153184204	12.105551148107555	5.329172046676825	-0.65641192	-0.49690897	0.59730825
H	8.398505211333735	12.95522031300299	8.440140069248494	-0.20690271	0.41994938	0.2107614
H	8.952295218007302	10.276791063270343	5.518848064326881	0.20229895	1.82314953	0.16013045
H	5.4543052534349705	10.725740280649266	6.8207590271548915	-0.48594639	-0.07100183	0.34332434
H	11.738745248590673	12.321170232984551	7.663040099723195	1.5211272	-1.10174025	-0.97472493
H	5.014705243438732	3.793271081137197	11.917294138586957	0.05297389	-0.58655371	-0.23933312
H	11.91544519002134	0.6700411465343168	8.702000048419798	-0.04555678	0.57499783	-0.12255958
H	12.037895206702299	2.5201310348838315	12.389710062729836	0.12168427	-0.16578165	-0.17997168
H	10.385075263359923	2.669471067099146	8.39229000250928	1.08482354	-0.30432876	-1.56771161
H	1.275235169586312	5.840434108893369	12.140664112729503	0.53211108	-0.18584841	0.09566425
H	6.502002220236554	4.689681027881837	12.355094084689137	-2.02452442	-0.28624329	0.80663486
H	5.081795205735818	7.253988061275697	10.93929412437666	-0.14746318	0.87240899	0.3975159
H	13.172835145651586	7.225842153310903	9.376670077702395	-0.94228178	-0.15200315	-0.77307418
H	10.329315231880301	6.039458025466869	11.643059981789644	-0.38117266	0.01020346	0.2997551
H	11.18396515870641	5.158061055259309	10.386069997333802	0.06722877	-0.757262	-0.3715836
H	3.26821524762064	8.362761082148763	10.715250049746174	-0.44716075	-1.56995278	-0.71686888
H	1.086355246082062	11.94436109526848	10.731410101756353	-0.41269346	0.27940733	-0.46221473
H	0.80784514535865	8.3449911127732	10.640280101352232	0.12155429	0.13724309	0.56733846
H	1.0230352211348062	9.283071066655735	12.216740070307251	-0.06592243	-0.31805237	0.56708568
H	2.0062952382743924	11.50154103779118	12.116839992606593	0.13251241	-0.21723541	0.71706208
H	3.1117352009513404	9.42666103684078	12.07523001041123	0.21206077	-0.25665784	1.77013706
H	2.8700452435947024	11.88552110829945	10.63496008519698	0.60423481	1.08584877	-0.24184986
H	13.245862542764735	9.860241151507	10.930210109224912	-0.06949756	0.26685835	0.00415417
H	1.065695136689	10.497641075810806	8.625099987695794	-0.2633809	-0.15625779	0.57638725
H	6.420462186006673	9.329261046941765	11.235780107808015	0.74494373	0.8127907	0.1662039
H	4.862705153420808	10.95012105580193	11.071390085146252	0.00170091	0.3236575	1.2464481
H	4.636975241490008	10.387601072565353	9.571950100915506	-0.28591216	-0.94946466	0.25490044
H	8.385275189456157	9.651910194005508	10.764200005769071	-0.52194964	0.02234033	-0.5164538
H	7.768045244648733	12.370620247310493	12.226080079579006	0.13236416	-0.03885357	0.15476565
H	12.026785249963808	0.1410210337709362	10.50822007871953	0.08965783	-0.62908221	0.82219947
H	11.218835247185321	9.121461034113919	10.10558000050509	-0.217371	0.44476943	0.31490041
H	9.550525184871704	10.566890225968542	12.225299987629375	-0.5228383	0.22756879	0.11931766
C	13.094802572129755	3.776451127652877	3.296280030591964	0.607213	-1.89637064	0.25147198
C	4.600855257896104	2.0662210992793586	4.278340012585522	0.16355819	-2.5796092	0.62320248
C	5.161785162173584	3.9850910998862052	0.9886400465207987	1.83466298	-1.71527898	-0.68967995
C	7.673289178413042	0.41636107663742056	1.4879059256598235	0.47501006	-0.24800842	2.75111242
C	0.8816751614007741	5.830333051951358	2.6454000062443606	-1.72907878	-1.6978397	-1.6047621
C	4.56947517609475	6.884815130528072	0.42943000610512755	1.3611119	-0.25486596	-0.74636435
C	6.059151230514717	7.512091026194138	0.819750074320172	-2.96476734	-3.72384564	-1.29254825
C	12.048162573449613	5.883637119816424	3.606270029380416	-2.81960971	0.77348387	-0.13743655
C	1.14385521789925	0.04239186347492949	1.9011900727146327	0.27370388	0.69305651	-1.99310889
C	3.1528052008880922	10.462641036801152	2.6350500832417834	-0.99069087	-2.69851779	-0.82748097
C	1.258385235079028	12.157821100313955	3.1979900074660352	-0.07758224	1.84127943	-0.18286215
C	2.67993514403281	11.689771112610174	3.3863999870546215	1.61485715	-0.36670473	-0.43558742
C	0.13647519622257	11.144071082857918	3.3512300929475316	-1.05127743	0.14483044	-0.68498396
C	7.823875225487205	11.639330200561602	0.03822593784901299	1.56375488	0.80385503	-2.10169975
C	8.689185168128306	11.2919902443113	2.241295969794283	-0.18553644	1.90666167	1.10318018
C	9.932845197129728	12.765440232748322	0.7740460091536312	-0.94655816	-1.57823178	-1.52766304
C	4.213165266668384	1.299211103937653	5.503472010585564	-0.53781174	0.00103043	1.54335562
C	4.59527516437611	2.7361410279390275	8.473440008341619	1.0832767	0.00750231	-1.99352738
C	8.849815143712085	0.935371110756572	8.130169992688097	-0.52859175	-1.20814908	-2.20546207
C	5.570055187433092	2.1932510725142595	7.416190021970997	-0.3990868	-0.59923651	0.37508972
C	5.316945231132166	0.8908710426180676	6.540582056706901	-0.10721608	2.06633971	0.98520905
C	4.778425236113991	12.654920289780762	7.345020010710439	1.09319888	0.78396135	1.24686595
C	11.18940522027183	12.927910211368742	8.322409988068118	0.96557434	-0.13256911	1.02140016
C	12.460002547511076	2.8573910889175695	4.373139999903408	-0.40011624	0.28298512	1.04514622
C	10.15907514704865	0.5606411061795354	7.37622004279777	-0.96352149	-0.00386133	0.71498483
C	0.6909051396019601	5.31131107774177	5.005120079935017	-0.76204615	1.25949783	0.86320662
C	6.0303462177771605	5.866444038505966	4.8048999952168	-0.0397304	-0.34345078	0.93299398
C	8.020235200334689	7.274951096357857	4.949420004287865	-0.34005635	0.62799235	-1.21129244
C	7.035626159845853	6.4391951218434365	5.875558031702178	0.13999641	1.4738308	-0.4006419
C	6.35950125315046	7.354754118409045	6.982163059399536	0.36445429	-2.1883369	-0.23383486
C	12.075155164990147	8.074631125887429	7.809320035816662	1.38757742	1.88710697	0.68446139
C	0.106485174727658	10.440011061267196	4.702149997218765	-0.02786113	0.36435332	-1.01547749
C	5.870470229663348	8.66809112803451	6.6005160615535585	-0.98210282	1.64423807	0.03521344
C	8.675255252951606	8.510621062284331	5.465585011034814	1.4332255	0.07306941	1.83078012
C	9.951335144319078	12.494900236020863	6.200043990510105	-2.12011261	-0.12312958	1.04005897
C	8.882985262915629	1.9354010558160422	9.235310020464691	-0.67677596	-0.04453814	0.74425302
C	3.156315193096748	5.241891132377358	11.972904108470606	0.83981705	2.5208397	1.07623541
C	5.360695157552555	4.539811089261612	12.626114122026474	2.34491439	0.18499977	0.04597679
C	4.576615206935537	5.788887051292738	12.297524184238661	0.63127439	1.7643362	0.70820366
C	11.165315194031386	6.064387117327788	10.95396000928251	0.09419604	0.45608616	0.76230476
C	11.070055225938228	7.260737067611282	10.04353007274381	-1.79008171	-0.69459918	-1.80548154
C	12.426805247985238	6.272103030388213	11.69234002178722	0.83743824	-0.57602544	0.38247287
C	9.63454515703735	7.165173126184046	9.304500048719724	-0.87750337	2.30075262	-0.22659003
C	12.150105170195115	7.089210141044076	8.882570045319797	-0.1406682	0.19897439	2.69825063
C	0.8373051505687902	9.31898114821039	11.157390046720193	0.55801502	0.12005052	-1.68439883
C	1.9883351741329403	11.447111097268117	11.041950110291966	0.30978341	0.45183125	0.48784958
C	3.237615134479682	9.361791044634186	11.033659989417785	1.91981991	2.36796513	-0.4577102
C	2.013685221490802	10.15562107876788	9.06251008313912	-1.05696062	-0.68948599	-0.24352289
C	4.630475147355044	9.98766112443496	10.630740088536053	-1.22981134	1.24125537	-1.59333879
C	8.47744526120438	10.41331029359598	12.494830024602894	0.28533561	0.06027794	0.23008927
C	10.885665251850904	11.946850214773693	9.462030053976312	-1.84827794	1.72418377	-1.04908165
N	13.322882649281041	5.1605810632593485	3.709150107808711	0.9826778	1.20895582	-0.66073971
N	8.563915193009137	12.270980192618735	1.1289659708484745	0.05393409	-0.50413568	0.61485201
N	2.039325192286488	10.07923110561122	10.553610075820218	-1.71159661	-0.70519558	-0.40805049
Cl	11.084275197789626	3.2586610592957053	12.977674128343534	-0.07264377	0.12432403	0.18061642
Cl	9.680607809116628	7.564091937014944	1.4055460025522417	0.29329943	-0.10765867	-0.02711247
Cl	0.7053352260036561	3.305511897630672	7.914510051014524	-0.24699549	-0.22309773	-0.0427051
Cl	9.040275256541975	3.452571891707001	4.938300015555004	-0.14874414	0.30200338	-0.29287807
Cl	13.300875248618091	1.3029218763915396	11.443964135744958	0.01746148	0.15312807	0.13285198
Cl	2.545775204969738	6.6706032891358795	8.558240078859667	-0.16234449	0.04594498	-0.05587662
O	4.41017517098724	4.396551028966667	1.8623500614831356	-0.7604312	-0.15770773	0.52104045
O	3.7156551817567864	2.960441077697653	3.925950043643365	0.95899315	0.53845482	-0.88602341
O	1.81516521044203	1.0448518765053907	1.658300091184127	0.1343489	-0.41762051	1.11546617
O	5.5801152376044625	1.5799410593674386	3.641150074600863	-0.51352232	1.53500813	-0.48834999
O	5.959112188988053	2.873031049986153	1.16622001647381	-0.48563497	1.08123291	-0.97736847
O	12.201252541096856	1.6023010850306563	3.737740067599201	0.72883837	-0.33445332	-0.76146735
O	7.060071262355507	6.770445936014281	0.3671200476939688	1.03067561	1.31359248	1.37504752
O	6.081273214889306	8.431161058266007	1.6072400717254465	0.74164767	1.95877722	1.05146361
O	6.416415249195796	4.765471141277661	4.1456700833108435	0.76711899	0.83255485	0.23954287
O	12.445615230145934	6.867328089382414	12.856259997500173	-0.24802296	0.48893987	1.09272134
O	2.4293152516700705	9.558981119056964	2.1700600719494294	-0.06290119	1.00755899	0.22156428
O	0.283095181268374	12.571821153851168	0.9692900942298545	-0.59569182	-0.85545865	0.53098044
O	4.466775260957433	10.358521112091093	2.573440007025462	1.31880907	1.57804983	0.52585042
O	4.117815230448402	3.855381095482699	8.27438999644253	-0.95429297	1.0804964	-0.15316388
O	6.6143968500367345	0.5751410481786263	6.008034077332555	-1.15218649	0.00285274	-1.16256973
O	10.727385175013865	1.7641610807700865	6.884674092136424	1.28864749	0.43354011	0.3261749
O	10.103285137272378	12.956800298448346	5.068050101418142	0.8209337	0.15361386	-1.77788273
O	13.133372648599645	9.251831117864812	4.79651000278105	-0.30839945	-0.86063491	0.07231659
O	4.928945197698648	6.392770103472838	4.62458000274733	0.22532261	-0.31178998	-0.21273189
O	7.696069219708319	5.435501126423092	6.6232910745427365	-0.53983008	0.93467738	0.56509529
O	12.668645230062	7.685285152780321	6.748138078722784	0.500946	-0.26393167	-2.65051078
O	1.1619751662895021	0.2148119607202135	4.274860002996829	-0.05846936	-0.99184481	0.14497599
O	5.0524952180113525	8.77251111240858	5.593932988716739	-0.10134567	1.8457658	0.25173795
O	0.36783516550111406	11.194521079757909	5.739408092838805	0.8700567	1.20332371	0.12639497
O	8.373635216432893	9.673861141787688	4.939979993243897	-0.77233916	-1.04105895	-0.90068544
O	4.61910524547538	12.673820284889258	8.606479996257736	-0.08721008	0.20888874	-1.04403872
O	6.173321241660946	9.740881128974383	7.210465021987451	-0.17180491	-0.415912	-0.27991547
O	4.660705261696904	11.625000275067638	6.605488024665684	0.30905641	-1.70293013	-0.48092313
O	9.451335261943042	11.325870250924586	6.482433109536343	0.99576612	0.70641105	0.37048092
O	9.537215220869726	8.496831036531841	6.389711153836581	-0.77955881	-1.01464043	-0.57467913
O	11.8164652484061	9.28343108633911	8.029760010117679	-0.91406947	-0.16314242	0.28175459
O	4.398225155758181	2.102491070733799	9.574689993221323	-0.57592819	-1.02323865	0.88695283
O	7.99686518616134	1.9484810355383435	10.102740106427062	0.98060512	0.22863653	-0.51960529
O	9.887235150711426	2.836651151829542	9.193250030294378	-1.19157028	0.38375304	1.79532298
O	3.055385196593646	4.442541142521479	11.074884157484162	-1.11387617	-1.62826626	-2.19275758
O	2.2099652542138863	5.821067152421937	12.664234198624435	-0.83137669	0.17416041	0.02846543
O	5.192465217438943	6.311396051044121	11.117164073426956	-0.07848858	-1.71246936	-0.30682954
O	8.90793519994087	8.176501122251777	9.137559980866575	1.0886703	-0.17086382	0.4914598
O	0.22122783795834	5.967343123820806	11.23368007059158	-0.36256372	-0.48023047	-0.5735971
O	9.267365250482566	6.022270135500079	8.826210062144561	0.5695065	-1.98971185	-0.78599354
O	11.08633517309854	8.449031090790772	10.815210024341646	0.57667202	-0.1102004	-1.11808946
O	5.587165200318424	9.032301134235528	10.83321008291838	-0.908743	-2.19868849	-0.22333859
O	7.732865247200898	10.145450198253535	11.315040106187691	1.11892388	-0.6079273	-0.45001896
O	11.507845213001177	12.22779028983844	10.606330020529095	-0.05538572	-0.31325256	-0.37687276
O	10.005325257164484	11.088940310939675	9.333429988493604	0.75482996	-0.51477219	0.88546469
197
Lattice="13.429056 0.000000 0.000000 0.000000 13.080997 0.000000 0.000000 0.000000 13.124040" Properties=species:S:1:pos:R:3:REF_forces:R:3 REF_energy=-1148.92626262 REF_stress="0.005642422247733251 -0.0022702261553310017 0.0028215763301693533 -0.0022704496512897816 0.0036492050839442634 0.004476563998555134 0.002822084301631073 0.004476237636284451 0.002040391713098202" pbc="T T T"
Li	11.17729973576718	10.044920079990126	6.6293799529562865	0.09762463	-0.04483843	-0.27899955
Co	2.079279752872908	4.512220114367719	9.251637912023146	0.27940064	-0.27729476	-0.37669216
H	0.9128597138528148	3.472560120231871	2.22950794401206	-0.83116773	0.58870373	0.43160829
H	3.5520596751917815	2.9937901305230685	2.3669379016625363	0.46952186	0.18754043	-0.02096719
H	12.856566037600007	4.344590013709841	1.705777911906892	-0.37162378	-0.24563054	-0.02965084
H	6.006180650082715	2.848150101744142	2.062177880206438	0.01836981	0.74291079	-1.56983812
H	7.839449624704054	0.37175003529559353	2.6053780815568963	-0.08628227	-0.51081165	0.41520608
H	8.952699732217685	0.8832800742668566	1.449018147336508	0.56690704	0.34573764	-0.41616544
H	9.638169665976566	0.1744600816998065	2.933468052363464	-0.12303707	0.11341071	0.12129792
H	12.812386053596573	3.1581701266290563	3.089177960089768	-0.67436244	-0.33366809	-0.06382434
H	4.003899749228633	7.699269027594859	0.003317888501838	-0.52783604	0.55895843	-0.41472054
H	1.9053996594118492	5.799917136492921	2.4027978967716583	-1.05074989	0.20135646	-0.10987973
H	0.9063796569872096	7.102112089379411	3.180967888172162	-0.14017158	-0.70939215	-0.38465911
H	0.2495697467733978	6.2943330452728965	1.6781378966457041	0.3386134	-0.20592164	0.45745161
H	4.162209657560465	6.3744171335947115	0.9902678610890999	0.04679236	-0.56021947	1.01100772
H	7.915639644657111	7.0939851274700585	0.188358056575172	0.81531975	0.2391647	0.18073859
H	7.520881654831343	8.084810096565755	3.7927578650081664	0.22693471	-1.0267002	0.22701042
H	11.188809645699914	6.648967249847573	0.303008093383196	-0.99476026	0.30754884	-0.11445433
H	11.785306037865924	5.872001017767768	3.0496778813017182	-0.0137356	0.15618972	0.61327327
H	11.67998611168506	4.778370137490735	4.45328790085341	0.97612186	0.96737761	-0.28144786
H	12.432446087452188	6.479089049019496	4.616827873205191	0.17832571	0.23763839	0.40531816
H	3.3132996473514646	11.509490104549423	3.9533178928829584	0.91321042	0.70296646	0.64057427
H	0.7554496865890068	9.563380058324839	2.634157919674714	-0.31913021	0.53600603	-0.13252642
H	0.23696966604373523	12.918790038330599	4.55173788541311	0.05230777	-0.70802846	-0.84509295
H	5.831385635010488	11.428857268397167	0.75434815303833	0.88428769	0.73192162	0.07443766
H	7.975699756411024	10.59625729381847	0.259048072149912	0.09483548	-0.49339791	-0.54749909
H	6.568373726341089	0.05294010356576499	0.889928146038598	-0.34147352	-0.14534413	0.50631566
H	7.362457733810845	11.202767275806139	2.8229481508805	-0.51472854	-0.4303572	0.32662223
H	4.990329742715894	9.50062005019857	2.0754878876504037	0.78909434	-0.5697892	-0.47588509
H	13.2074161161046	0.2474428890988015	2.2437678694567498	-0.56063928	-0.12904051	0.56030664
H	8.588019740000151	9.89681729187777	2.2659481529207404	-0.49547243	1.06061487	0.88712082
H	8.951729751475359	11.166747180433955	3.57203815737296	0.4893915	0.08546277	0.41442398
H	10.8731196569	11.260397178470122	2.246108148233886	-0.27104006	0.51746035	0.3353678
H	12.840786090610123	10.719160064161237	2.473617840340418	-0.65789108	0.68080935	-0.70301035
H	4.249049724966245	13.062177257780352	4.509687936932318	0.35045715	-0.00667118	-0.1800742
H	3.3408396875944413	1.172140016541988	5.353477864852026	-0.16075285	0.27080501	-0.32836502
H	0.5295832986508194	1.2765100225525505	6.357131065373544	-0.84980269	-0.14237782	0.46741931
H	1.3927196483170996	4.112030029118453	6.686613890524085	-0.04107203	-0.33224555	-1.11670553
H	13.372196009509752	2.489440120077469	4.598657902582886	0.74189021	0.5440987	1.07442413
H	2.1782297404504813	4.581540111754743	4.284197903310608	0.1297744	-0.31861607	-0.65489951
H	6.727992967669971	1.6555701114854784	4.570347905089908	-0.80659532	-0.61397775	1.01277943
H	4.920479714570399	0.9696800604426066	8.791917759234519	0.65814489	-0.5034461	-0.15109283
H	5.165169745126995	3.2139901425273654	6.199681959892945	-0.03873744	-1.09079481	0.86322217
H	6.217665727252998	2.4503801317775977	7.471087883202123	-0.75618784	-0.04030946	-0.27577728
H	7.870099700114074	0.46485010821157347	5.71596095683927	0.46897527	-0.34714227	-0.05396128
H	9.10699972431445	2.1449500979826466	6.333834319843768	0.00931024	0.71342469	-0.20961344
H	11.64928970603053	2.148460121947906	7.555177937133855	-0.04580105	1.36288995	0.69084388
H	11.654889622540988	1.2680000490466465	6.09516893142644	-0.47014365	0.10431801	-0.46437969
H	13.179266128120844	4.35426014085298	6.153482846229382	0.43983546	0.17185907	-0.25611036
H	1.3852596732074458	5.880170100487943	5.055827923197977	-0.0104517	1.90814766	0.38908675
H	13.293896016218268	8.440340087825263	5.709156929645358	-0.04475587	-0.47021172	0.36846933
H	8.86232970305186	6.826200241323235	3.8719879557615626	0.06501026	-0.17188314	-0.58264127
H	7.778069705289116	4.335840134716207	4.140477855864789	-0.69152253	0.09144362	-0.7202711
H	4.693329643132848	7.408121088108221	4.986407920954682	0.9071329	0.57339029	0.74561671
H	6.064907659409785	6.4637131217295005	7.031127940938364	-0.64865877	-0.19770424	0.28539958
H	7.480615703600424	7.453072103474595	7.1847618880491035	-0.7793274	0.38856895	-0.0672377
H	8.764149737567115	4.971160097256951	5.6220878499194225	-0.33654169	0.44202743	0.61093216
H	9.391349652787536	6.132890125456997	7.241910913079399	0.44376891	0.31198779	0.46469008
H	12.745879726199131	5.976229094959253	8.850027857699367	-0.34205142	1.4450356	0.3092496
H	3.061279634950972	12.089090120820057	8.969757947833175	-0.25488688	-0.68356478	-0.29026576
H	2.5963097039102676	10.480110073643846	8.278477893015337	0.41974688	-0.98003868	-0.44268042
H	2.413979645303221	10.141550059987035	4.59955794923237	0.21955334	0.15164661	-0.47920609
H	5.796678641668069	10.751987218939076	6.42876233708274	-0.52580665	0.34590195	0.93327357
H	8.850229720381787	10.352470020183207	5.962206921885476	0.58705519	0.13893745	0.12121846
H	2.1160596553581437	0.9276128817079214	11.641747880837357	-0.82585118	1.08431999	0.54801799
H	3.0952797227655475	0.2699429890566305	10.455847964113936	0.73920219	0.4315336	-1.28274072
H	5.123179637347448	3.773380018201248	11.587497693718088	0.05567806	1.306761	1.1131481
H	9.482219645722392	2.641480026712033	8.505817891287254	0.41734918	-0.5287415	1.87052848
H	5.272069734081529	12.463507240624562	12.03929788220861	0.09241002	0.25183021	0.32247601
H	10.186549749133036	2.218540125269344	12.278507918277638	0.00817393	-0.37867728	-0.37685833
H	1.2413297327378818	5.866165061699267	12.31605776475141	-1.94273329	-0.29196021	-0.55782857
H	1.3810997544126133	8.79861002474781	10.06308784354849	-0.69099635	1.0825228	0.21734065
H	4.563159650992486	6.557761043698968	10.157797739245986	-0.71298314	-0.03159288	-0.05039663
H	6.391133682973755	4.830660115498145	12.3217476922067	-1.03983747	-0.13203394	0.04032911
H	13.29894963871519	7.294123075765344	9.990887907194761	-0.79880833	0.10953359	-1.70838635
H	10.024289683867027	6.229858118420261	11.395557955441097	0.50923711	-0.32181779	0.14768797
H	10.900699715730989	5.06940008638308	10.273227868979722	0.18813806	1.0875953	0.74877211
H	3.419289683445689	12.982740024767603	0.10157809944603001	-0.42767087	-0.24967153	-0.25142199
H	3.5852396505332305	9.333920139248029	10.044097882919482	0.11507702	0.34703551	0.76141246
H	0.7916796692154812	12.274650082651496	10.658317906964854	-1.1619415	0.82061795	-0.75208305
H	1.2892296996491401	11.699860079842889	12.214927851264548	0.5211616	-0.36309082	-0.76801009
H	3.265869697413507	9.85455010469666	11.814537938920974	0.88796912	0.06572894	-0.50674099
H	4.247599655458332	10.926020075271964	10.590867954335938	-0.12540334	-0.35085919	0.48734893
H	1.3457696528541625	11.712080085760476	8.618987930127032	0.32456127	-0.24402248	0.0089728
H	0.6702996659286494	9.687400076634189	11.5180379256342	0.39407033	-0.05352595	-0.5027683
H	0.141189741515225	10.195410019272387	9.907767851044644	-0.23841865	0.0213716	-0.52936157
H	8.952789706895432	12.69796724005199	9.121417908117596	-0.15493391	0.13003611	-0.0871749
H	8.471289681775458	12.100547242983856	12.623377892651291	0.98916357	0.73690788	-1.15360993
H	11.220149706026739	9.014060065066998	10.016667852295093	0.07503456	2.41474043	-1.79267155
H	10.73189970000792	12.669157259498915	9.140617853383404	-0.05317607	-0.18768844	-0.2042812
H	10.753809742654147	12.0100072520201	0.580958063855058	0.26804931	0.27433242	-0.06079494
H	10.140669646591892	10.297737296768005	0.8979981181116181	0.4265393	1.64658362	0.5409659
C	13.3633960831545	3.928570090569475	2.57706795282352	1.71319058	-0.46901387	-0.28712202
C	4.534949635126712	1.931120139160485	3.684637956683428	-3.4076135	-0.32601381	1.3186128
C	5.111369722295184	3.8603201187493217	0.5887878659997381	0.56930938	0.22516743	1.41338799
C	8.82476970668151	0.120590050046648	2.206328133676902	-0.01827567	1.0884751	-0.79552413
C	0.8481696663307703	6.1406801208797654	2.602297869415836	0.64442934	0.78929487	0.34233714
C	4.61567975046072	6.82360104718953	0.133127897404036	1.63494148	1.5028975	-0.33079534
C	6.032864722272031	7.451843012982382	0.418817901588346	0.66118282	-1.86334188	-1.68254459
C	12.320916028438958	5.606750051578871	3.9928978970733904	-1.76122176	-1.1174361	-1.0553397
C	3.283709661652081	9.965580038786202	2.618087926660808	-0.34346652	-0.0158051	0.25190728
C	1.566819709721663	12.44868006116501	2.136177909859136	0.37725547	0.94854272	-0.44734344
C	1.3209696772749613	11.528130133058259	3.4022279125259343	-1.26856618	0.12143484	-0.78424181
C	2.598559742306737	10.771230019796585	3.695257929689588	-0.32381837	-0.34029613	0.70496012
C	0.2161496599038746	10.416510134690576	3.0987279301310338	1.14728456	-0.11602355	0.55256736
C	6.5847586523208905	12.174397189683924	0.336218082375902	-1.44540155	0.41029397	1.54130375
C	8.406019633308361	10.95273722709101	2.67634803290057	-0.66108995	-1.5435599	-1.70465037
C	13.06698605630879	9.90251014183745	4.379437878975626	-0.94982878	0.10919688	0.65146525
C	10.293729733913091	11.376627201356703	1.3327281305150762	-1.36688105	-1.78608592	-1.97112115
C	4.319629756616558	1.0101100215739975	4.882807931937064	-0.25331671	-0.08393208	1.51186911
C	1.2175596314924628	4.93176013384115	4.6422878542151995	-0.67648464	-1.36615084	0.16969299
C	4.136999692889981	2.432360142533672	7.933097918455053	-1.69684271	2.00394664	-1.38435067
C	5.386439635647437	1.0520401114585505	6.089459842873042	-0.25540609	0.06924575	-3.12441758
C	5.232999640321249	2.332630097022186	6.929929913684942	1.29236105	0.89041246	-0.9136236
C	0.7558297288845608	4.04892010431842	5.7646718804801536	-1.75729502	0.03962379	0.24667556
C	12.620869714682224	0.351520142393147	7.648857858187848	0.78200961	-1.47566582	1.44935827
C	11.441309746865992	1.184310053050462	7.1628318800240995	-0.00562379	-1.17873433	-0.91507463
C	9.967469734836481	0.7593300392922595	7.4433179399469145	-0.22973934	-2.0346052	1.47474816
C	6.3792936868352	5.643760116815366	4.539077911660438	1.08139371	0.81634824	0.45332961
C	8.173009658828832	7.433061055654469	4.445727928967019	0.03421332	1.62594776	0.43312342
C	7.353039667990424	6.511130035868621	5.3893519026837335	1.08017208	-0.60474692	0.21090061
C	6.631453630003172	7.213090091910267	6.493735914641794	1.04827468	1.32181323	1.22606118
C	5.779659729936567	8.460900014285803	6.305116820915	-0.68745829	-0.14799602	1.81098545