197
Lattice="15.146405 0.000000 0.000000 0.000000 14.753835 0.000000 0.000000 0.000000 14.802382" Properties=species:S:1:pos:R:3:REF_forces:R:3 energy=-1149.1493678 REF_stress="-0.0046886453606151636 0.0016662522504335372 -0.001909574050876077 0.0016660500567454045 -0.002051071259771063 -0.0010451434369101486 -0.0019089941335386636 -0.0010442004135378282 0.0033052473998502127" pbc="T T T"
Li	14.241224254380606	11.402929162294415	6.445840241651774	0.31946888	0.43139945	-0.02245457
Co	3.4520442153156123	1.7360991413862914	4.470919117229403	-1.31882807	-0.00388454	-0.49775842
H	0.6782942027536081	1.7451091610534344	1.9357291526954457	-0.36795542	0.33207231	0.68139662
H	1.4571241859902562	3.791749092950105	0.9710091944562811	-0.23415826	0.53086968	-0.03483166
H	2.603614227305154	4.701709145831383	1.9708592026789626	0.75220472	0.92287079	-0.05556739
H	4.05371426779116	2.0432191076486497	0.13362687849284038	-0.10789312	0.13189486	0.07923094
H	7.363165224357391	2.0215991325060436	3.8207491920449446	2.18274922	-0.3634358	-0.61669127
H	8.88900425918988	1.7673490923545063	0.5177368588289524	-0.11238928	-0.79135022	0.04791184
H	5.429544212326374	14.520734420107285	1.0089368947058384	0.58965416	0.55764137	0.70467983
H	7.167398237490498	1.551109210496481	0.3359268935398996	-0.2542115	0.11370667	0.67934488
H	14.390219595764462	2.4005391459895606	2.8279291312526746	0.41180084	0.36553052	-0.44309751
H	14.961379637986573	4.896609080340416	3.714809133589719	-0.48512011	0.64257	1.05461232
H	3.467444171542008	9.082349164296579	1.8065292226950103	0.12802588	-0.03109324	0.32425356
H	4.001394191081994	9.665939184333917	3.3945391639434623	0.05273665	0.03688075	0.05149016
H	1.0362342066304622	9.46514907616605	2.5553391154262135	-0.19443365	-0.36071106	-0.38405815
H	8.850554200297656	8.292601148201447	3.875009248895231	-0.68571922	-0.5579051	1.05185935
H	6.733625180089627	9.743789124034013	0.9681292429443196	-0.0436381	0.08437399	0.13188503
H	9.92665420033308	9.448629206803034	0.9590667803920567	-0.07599163	0.46675812	-0.32710626
H	11.123724147840738	8.34525020939813	5.007089234787441	-0.07663086	-0.18598233	0.07153076
H	3.7108241867119083	12.502319165254667	2.510089120694635	-0.4902826	-0.14352603	0.19780951
H	3.8696042574482163	12.231224376287248	4.317149156821075	-0.50840401	0.14165538	0.20660228
H	0.481174187492334	11.109899108724457	2.637549178672476	-1.11219036	0.7034703	-0.0620806
H	4.887024205147014	13.769884448112817	14.427669228033663	-0.02611469	-0.01191229	-0.27668045
H	8.104257181219669	0.4395391788208256	1.5081768445615582	-0.08826513	0.33052786	-0.64315707
H	8.451406128569293	11.007659161307934	4.916649194972841	-0.16191329	0.20052217	-0.42638886
H	7.879538143358784	14.197804391497233	4.615531583790718	-0.56539109	-0.17573315	0.0264642
H	10.226804154654614	11.269989139350564	4.91717912026133	-0.04628369	0.65896706	-0.29911551
H	14.453749527110167	0.11491909837944801	5.002969139681357	0.20612709	-0.50532383	0.58591378
H	3.4872641517922323	2.6610490909120488	8.063103243015352	-0.33640994	0.17197242	0.35299188
H	5.760074220743011	3.3827190750280858	8.040192115598543	0.20002868	-0.14221305	-0.21176761
H	3.9865541974632364	4.737629128280776	7.002987111299814	-0.25663332	-0.51710862	-0.97954334
H	6.447944132454552	4.526889181138429	9.226609130729312	-0.96934131	-0.45676701	0.37627325
H	8.105573252384874	1.400009134321536	5.815109249053938	0.62455807	-0.2537999	0.0856736
H	6.911500172649661	1.4918390706411953	7.182982008463883	0.12329622	0.59932233	-0.11021338
H	11.78145952868871	1.1243291484257991	9.761599202365609	-0.42812839	-0.54270333	0.32802719
H	11.194159628336411	3.857709211874754	9.700129201115415	0.0145135	0.34477325	-0.52967074
H	13.921039543780278	4.076499146622574	7.589125186919032	-0.07996718	0.18560532	0.0609128
H	11.078859586261615	4.047759118112193	7.812744185136258	0.12458627	0.44454197	0.07574503
H	10.518759600726638	2.616299085585928	8.615619187342066	-1.06288177	-0.36164798	0.16788699
H	10.069159609931143	1.7631991335669481	5.814379195555942	-0.24602673	0.18810433	-0.38513295
H	13.613609621167292	1.4832991081660727	7.393295145177705	-0.28050856	-0.12601475	-0.87868922
H	12.626759663487313	2.8279291316107176	6.578898116566696	0.31761672	-0.15328229	-0.59659119
H	11.331559639066297	0.2996492142299776	7.725357136683409	0.04300309	0.12810361	-0.43317228
H	11.741459538131904	0.5897290908973472	5.977519212021974	0.19617244	-0.46850135	-0.21497575
H	13.586959672330044	1.2315390727947415	9.686659181191638	0.47048044	-0.65179425	-0.30271444
H	14.689949540264251	3.0741390692264186	8.916339206534	-0.59979738	0.09049499	-0.48841116
H	4.964494130702611	6.989786149630675	6.740601117753219	-0.56762317	-0.27125401	-0.74372905
H	2.19642417162966	9.648689147662894	6.024409162695218	-0.15184059	0.00244187	0.48013394
H	2.2685942184717423	3.9411991001873345	8.443649253750646	0.39802196	-0.58310991	0.68395363
H	3.1445541614731862	5.8730091944080005	8.066356214562784	0.57781396	0.00353129	-0.2632212
H	4.815774150968928	8.588019110011475	8.8448092101843	-0.54686166	0.19512389	0.0735174
H	6.135484240072278	5.726969093580685	7.139390324628096	-0.51115924	0.37898094	0.40861328
H	4.457554241520282	5.843709110310391	10.596819186313901	0.85088282	1.05689942	0.1184604
H	6.562344175120482	7.633107071799094	8.307019119900787	-1.1615645	-0.63773669	0.07974643
H	8.247046131526819	9.028109197041656	8.314939134582504	1.05356862	0.0113054	-0.78365285
H	10.74725418306158	7.97482315887117	6.761013158956188	0.37916144	0.19884826	-0.67594441
H	13.62576415710863	9.505139199154137	7.728513152626384	0.67554167	0.5842226	0.35898887
H	1.081148751347406	12.709779187275917	8.353889235381667	-0.68206706	0.361824	-0.38777168
H	4.8540742604476925	0.1135191069497288	7.246182556235786	0.31429667	-0.48369141	-0.43386406
H	3.348148810650798	11.147189132317951	10.748129138797822	0.03146687	0.23001149	-0.19703112
H	5.412294274144423	13.159854374946896	7.2880028389745535	-0.38388524	0.06375925	-0.17638448
H	9.136094234898456	11.240999180870539	7.117856262842238	-0.30383929	0.66638086	-0.27642436
H	8.364886225787197	14.167124381185882	9.099549181146662	0.9124143	-0.25435023	0.44424241
H	10.543314195840846	10.258059134238387	8.561369196111784	-0.66000297	-0.01377262	-0.07608265
H	5.450474272628364	2.953799116688393	9.719839165323048	1.12829332	0.10400117	0.22282605
H	3.025884195660942	2.811499113104557	9.848209125744559	-0.142248	0.66867008	-1.41208895
H	5.085084206327412	0.9148491788163641	13.226829215602782	-0.40578119	-0.12641421	-0.88524046
H	7.01894119935456	1.1849991321724511	12.837799219417853	0.12227476	0.17995163	-0.32573129
H	8.728194267201864	1.8067191116457753	12.981329187757181	-0.57744956	-1.24043068	-0.13473626
H	8.350392176067773	0.2323591845931896	12.085019179713875	0.21115444	-0.06821469	-0.43684943
H	10.167964156276962	0.2170191794375152	14.037859146298361	0.07187751	-0.28826012	0.02400143
H	12.746559551142397	2.469249084733696	10.620189187583868	-0.47768058	-0.9519654	-0.50211818
H	13.56657957800813	4.337259169053059	9.410759204645656	0.07529382	0.4259635	-0.18321932
H	11.794934225324713	3.521779136384434	13.530309138985738	0.79077563	0.67826608	-0.87309045
H	4.138314212224752	4.143969173049778	11.147789169826936	-0.07988144	0.73723281	-0.66873667
H	2.84400419058504	5.137229084845231	10.362949242264728	0.31828556	0.14689206	0.20031683
H	8.005950194291238	8.989449132304062	12.144079205092039	-0.59069705	-0.21818088	0.20661625
H	9.414154217192467	7.877362126240194	12.519279187414195	-0.59513018	0.88869532	-0.10715984
H	14.175394189910858	9.142089066267179	10.461529112139091	0.05917281	0.40055806	0.10192993
H	11.978854148279886	6.465339091388507	12.032469242097639	0.81396007	-1.52405665	-0.35525102
H	2.7618488759830084	0.0775538302260256	11.589869128104223	-0.97877838	-0.14448708	0.02644047
H	2.354668816935078	9.776429181362309	10.998169205337058	-0.3064414	0.44756183	-0.31881003
H	15.140524202247235	12.90507909825939	10.735839164795784	-0.59070609	0.67282504	-0.73228915
H	0.44120873073984	11.599349184452347	11.770689110061038	0.43521104	0.56853517	-0.05733681
H	2.647364164910892	12.544509085083	14.139201584792572	-0.1342387	-0.23903483	0.80539557
H	9.567424177108308	13.87259445272136	0.47054686386527234	0.22710546	-0.66065006	-0.1772003
H	7.126503245838606	13.153504471780735	0.22613688345666158	0.40445374	0.16356585	-1.04448028
H	9.636214152121326	13.366154450438433	13.43839922260279	-0.73477475	0.7464152	1.06836783
H	9.585564269535618	11.85325914870068	11.392409196041235	0.0212505	-0.52775783	0.85919225
H	6.7228871359812965	13.549784372792132	13.233659182847509	0.72799949	-0.03564568	0.60943791
H	11.937064155532909	10.606089125118542	11.486819234804786	-0.74016906	-1.71959588	1.36427879
H	11.485414250230578	9.765209184708576	13.106749181398165	0.30773301	0.56489285	2.21589404
C	2.033734207803396	3.8080191798818306	1.9033492373305925	-0.45494538	-1.96393562	0.85960942
C	1.0291341776351581	3.6636891961018194	3.039579219141251	-0.45510371	0.13545789	0.37913876
C	2.903054269605588	2.579009209530786	1.6652092500420306	0.76449329	0.71325556	-1.93840701
C	0.47102412684163203	1.2849790871007825	4.026819225855273	-0.16666535	0.4861577	-1.37107696
C	0.34162414451592	2.2708791957051595	2.8711491272674023	-0.30360954	-0.78061274	0.61268353
C	1.559864222851158	4.026669100732844	4.489339201838187	-0.91851034	-0.19443258	-0.25948898
C	8.082566165510382	0.9974491157848552	0.5432768893528963	0.19630374	1.13633483	0.25365907
C	3.780164127705	9.986269144552576	2.3694392518910927	-0.89327207	-1.78248051	-0.8243213
C	1.150964138006004	10.23193909179703	4.4664591594243355	0.1157679	-0.51343037	0.45569105
C	1.2404742441421681	10.449919188526332	2.969619163464654	1.572597	-0.68955248	0.26914532
C	2.5570941636158104	10.943649204330598	2.354419126486577	1.91824764	0.77480808	-0.29454573
C	2.3476342204111025	11.25775909513356	0.8275591589816975	-1.16842712	-0.32483332	-0.71930394
C	5.620624144042236	14.529534492698394	14.747339109099045	-0.04041072	-0.8056977	-0.97165047
C	9.68224422959598	9.94169913601687	3.294129127514109	-1.51146015	-0.58274337	2.50849748
C	9.42895422430097	10.542069135533215	4.780779163457167	1.43949597	-0.85286646	-1.31225696
C	5.057964264530604	10.46360912474429	1.6975591165706927	-0.14586243	-0.61917023	1.67727596
C	3.1420142607516603	3.368299119040472	8.850399181858732	0.63424227	-1.10438547	-0.26769639
C	5.6091342323698505	3.8068191029201555	9.034629188639821	0.40166475	-1.39687626	-0.15266907
C	6.105674145212377	1.8673691777147994	5.18299911849162	2.52572427	-0.96061203	1.65357206
C	7.09942616836908	1.2044890961156842	6.14485910843501	-1.51934455	-0.17591588	-0.2324755
C	12.650859563511414	1.7573490903400752	9.734319151795248	0.37808165	1.60207841	1.40861635
C	11.216859546109394	3.4159191879436115	8.684689175767357	1.16465343	-0.2078821	1.1718175
C	11.498259613722212	1.057799088844284	6.925680189186478	-0.25656102	0.28957457	0.73066723
C	12.63465957415179	1.9896890949474009	7.274944621328031	0.54002828	-0.56351775	0.07783031
C	13.792549557490998	3.6531990716793867	8.58594914411586	-0.90662501	-1.12605786	1.23821215
C	4.1174341350605825	5.365739141352221	7.857359157664591	-0.94246189	0.91554534	1.34018275
C	5.247554244347269	6.300329099311578	7.528823241660864	1.60633357	0.62272398	0.32827708
C	8.432051142964848	8.604139150438401	6.175419218912523	0.8934604	1.0672224	1.35063208
C	9.687804172090214	9.615279087671334	5.991509239638058	-2.81011998	0.39499887	-0.24838583
C	10.90829424894762	8.775219165426229	5.992629187887415	1.25550246	-0.88324801	1.31640921
C	12.147824266177153	9.56980909518355	6.424356211918293	-0.01699548	-3.24145665	1.37336006
C	1.367588785357074	11.445759103497197	9.859889241593363	-0.09112191	0.82110859	0.48501094
C	0.156358766369064	10.549879078238682	9.552989227766128	0.86516692	-0.45269343	-1.84758414
C	2.571348748665858	10.565029201534301	10.236599214940064	0.34769889	-0.59171007	0.33106588
C	4.507574185105405	13.735314441591543	5.432339180369054	-1.02065995	-1.24676093	-1.04631662
C	3.1963488093790264	9.808689179893793	9.080019213908525	-0.75747643	-0.70752405	-2.45218249
C	5.3106441726161036	14.045744430798969	6.642075128550647	0.25394777	0.33974302	0.62588459
C	7.718933233699884	13.789914402427298	7.232090244157596	-0.88504346	1.97936702	1.47671788
C	6.75094524612858	14.414414447082434	6.171119126836944	1.09181628	1.10296855	0.89981652
C	8.063374155228043	0.8824091834944641	12.90261914781994	0.21652609	1.34275679	0.32062653
C	3.933064212400974	4.9509892090304986	10.383389111946535	-0.88683314	-1.1572731	0.32040475
C	8.90529421819758	9.285639162314288	14.090769225877416	0.44350209	1.09900615	-1.73135704
C	8.989024153104998	8.927089096726084	12.588809233883234	1.12069929	-1.66336076	0.26062536
C	9.695744220729	9.686289149335622	10.232729132072041	1.07436243	0.61586185	0.35815139
C	11.412164264683476	9.729069075036803	12.07270922249565	0.57002132	-0.07597654	-3.26530125
C	12.061054144777849	8.356261144205945	11.667679183193973	0.40310362	0.58855003	-2.01620739
C	0.851008814993862	12.340469149618007	11.035319188417422	-1.47938098	-2.7385117	0.44465373
C	1.847068847405418	13.146669167433865	11.677379184354482	0.12936999	0.66163218	0.78532
C	6.959685129220572	13.952064363535198	14.250029241879245	-0.95241291	-1.93573322	0.7210463
C	9.433864234539486	14.167184429295473	14.226559176504525	2.13336543	-0.86103104	-0.49720018
C	9.853264262000083	9.8553591018049	11.749769199119298	1.37979236	0.70612405	0.81518189
N	12.532459658107452	2.663039088214615	8.583469152975264	1.17990308	2.02176459	-0.39497788
N	4.269294267561792	4.377139080891604	9.024629143188875	-1.08449702	1.67903599	0.25678647
N	8.161802161935618	0.0816891827166568	14.1702491377212	-1.22962152	0.98648466	0.06263966
Cl	9.253274248811502	1.6698491095983905	3.6876691135564825	0.02358517	-0.14257027	0.16211223
Cl	14.668614162153757	13.826199099684814	6.89837319828022	-0.08190664	-0.49996237	-0.18559787
Cl	4.605248809608384	0.7859838701001433	11.402579172841675	-0.3807656	0.15689548	-0.41335928
Cl	10.910559545339245	2.7338937919934043	14.04792920701787	-0.62420232	-0.53745798	0.73061115
Cl	12.87312412637723	4.421489109743284	11.986231484391176	-0.10603004	0.50750783	0.09981858
Cl	9.838774150346065	14.208953864818328	10.258479208401674	0.0628635	-0.49333863	0.15563463
O	3.1027441754710803	1.526079181405608	2.294049238293377	0.36617211	0.72188256	0.60166825
O	3.4047342665846583	2.7746092135238563	0.4197492322728132	0.51144486	-0.91409705	0.47818302
O	1.491934260736752	1.0046790852254666	4.658719162588078	0.34679969	-0.0701064	0.5350133
O	6.39327424241163	2.1214291884679297	3.946209152118302	-1.80967397	0.47907716	-0.04198834
O	0.073164256892538	4.642499201624039	2.8260991127215074	-1.09945474	0.8241052	-1.62290545
O	14.437029561653162	0.7266091255527224	4.2180791800667725	-0.2517816	-0.27846743	0.46254918
O	2.2683941344564085	9.704119159271501	5.045069187446728	-0.61876865	0.67189039	-0.86938943
O	9.37445412546258	8.648299149891677	3.1386391302755485	0.50089556	0.08680611	-0.95507905
O	5.963674171162513	9.481669093067417	1.5648291144250448	-0.30386655	0.05185716	-0.55409314
O	0.073764206010432	10.379639146631698	5.051819221826712	0.68091173	0.32295137	0.14147226
O	4.0566541850793	14.569024460670489	4.617819143960632	0.00568888	-0.20267308	0.01904357
O	3.00560421907872	12.10089917557007	3.0987692094365356	0.00333589	0.96106281	-0.88689909
O	2.669434143683286	12.507189111203889	0.3724991396367516	-0.1564433	-1.15647181	-0.09022076
O	5.2641342570183784	11.648679075326084	1.5299991087319647	0.52108982	1.28284458	-0.80772578
O	6.982124225892565	13.888284418849876	4.914119171779871	0.72692727	-0.6140043	-1.05718603
O	10.088164259178685	10.547069210309605	2.335879142580677	0.69558473	1.13637995	-0.66594172
O	2.7265442711002024	3.5872290676851	4.661479214802923	2.31552926	-0.63970531	1.1729442
O	0.8851041308695321	4.700089174717639	5.317479206303692	0.2719813	-0.64265088	-1.18952095
O	4.996994227161553	2.045369184064004	5.666879228267662	-2.36851628	1.08028011	0.31964042
O	10.3089596207207	1.8594190735741711	6.760505141193593	-0.11152631	-0.60409472	-0.51356427
O	2.648648731552866	9.59497913817123	7.9505611740037425	1.05766574	0.25147813	2.20436856
O	7.904196188421877	8.630559138351003	7.405727222050398	-1.10565054	-0.7501474	-0.04057899
O	5.675894134667106	7.222551212232417	8.605429227325441	0.8891561	-0.48676777	-0.42262503
O	7.990416192377052	7.852469160279073	5.3138292348613625	0.15624069	0.22022781	-0.20343881
O	8.791374165118777	9.070189200797156	9.70751914248482	-2.09228761	-0.99892963	-0.50669864
O	12.842864183276948	8.992519110349122	7.428101171011361	-1.7205253	-0.97562111	-0.287132
O	4.393948729611631	9.312669073777366	9.420239242404296	-0.10892286	0.30824708	0.35242919
O	1.812158806383282	12.298069135175286	8.838579183496625	0.56562032	-0.54288796	-0.23259761
O	4.320794166418548	12.432024369524754	5.209799127802048	0.88736307	0.71879386	0.94679856
O	8.409859235628986	12.840644378364342	6.9705962421720145	1.16218264	-1.83536304	-0.50695927
O	7.67239499432406	14.432844347960797	8.413589167749254	-1.20984941	-0.0765463	-1.69189351
O	9.742534193362573	10.474189100023578	7.135285031904373	0.70118042	-0.85483488	0.21184698
O	10.66134422602494	10.268729107912884	9.554409220305924	0.7134617	0.48612558	0.50718943
O	12.550124153405203	10.523779101013302	5.845589130619061	0.84440158	3.39620793	-1.62575687
O	14.816324179575366	10.511089179750622	8.399589222536989	-0.52825476	0.19289712	0.38446551
O	5.360574146553151	1.0205092127891424	14.168279236676732	-0.83387166	1.38520521	1.38529323
O	15.01183413194262	9.765469147286208	10.548559127129417	-0.71394712	-0.46519542	0.23778457
O	1.867954225811478	10.333119123687036	0.15350914243114522	0.66324423	1.10314506	0.3191217
O	7.863775127794951	9.795319106824705	14.464879160762584	-1.17903551	-0.00719364	1.25367021
O	10.028694170336394	9.202139093855365	14.791429189148895	0.10739648	-0.84935836	-0.06076724
O	12.961754226359652	8.256349204458255	10.76615918063142	-1.29705246	-0.04738136	1.87670826
O	11.478924166980732	7.28288613637986	12.215669151090294	0.00123079	1.8608973	0.20955384
O	1.780898746134438	14.430099101830248	11.44881915090549	1.3680788	1.55995064	-0.63001466
O	2.6513487297794702	12.647999124962796	12.452919219151372	1.47018712	-0.71168709	1.16733452
O	9.433544190993384	11.184909082671505	12.141789128517123	0.23696009	0.58983248	-1.4456612
197
Lattice="14.811085 0.000000 0.000000 0.000000 14.427206 0.000000 0.000000 0.000000 14.474679" Properties=species:S:1:pos:R:3:REF_forces:R:3 energy=-1148.02780116 REF_stress="0.0034085085558627076 -0.0018083100654367008 0.0031741071577119345 -0.0018080417055103245 0.01059055256437805 -0.000967181838682838 0.0031743104311811464 -0.0009679859884771078 0.005496090490699539" pbc="T T T"
Li	14.026754209816731	13.025294600983958	5.390947275053395	-0.13447333	0.03235736	-1.00399946
Co	3.4041841773411834	1.7289346167121022	4.9879073759908215	0.71952502	-0.31541919	0.02541883
H	1.7355241891588946	3.0734946981958857	1.7301673085540383	0.44773723	0.06864846	-1.42446639
H	0.4930642934022012	3.942284613964515	2.578397370791504	-0.2604141	0.1878516	-0.17764146
H	4.5947941656737825	4.588284704952827	3.696187346327994	-0.27553822	0.0451942	-0.5056823
H	5.554124166890278	2.012354631654083	1.1162187491733746	-0.33783125	-0.05287468	0.0690167
H	9.701684277122446	0.3572145980270791	1.7662486294187574	0.86161352	-0.10987759	-0.65718245
H	7.526471836231244	1.9387046091760103	4.325027310315839	-0.26619988	-0.33774225	0.66099166
H	7.686978236363573	2.004514599211971	0.8257187525696214	0.74357044	-0.28028911	-0.22097374
H	9.290724199191772	2.660884677537408	0.3610287366116949	0.02326821	-0.14168497	-0.23739348
H	14.10424965982567	0.9255146611875886	3.028577245176836	-0.13554566	-0.54756726	0.31611763
H	10.833554241074959	1.138664659541118	0.5146987278344016	0.76060625	0.84388707	0.6152942
H	4.0571342863949384	4.841244703526792	1.969947307574421	-0.22283389	0.51120461	0.48820145
H	1.6919042094815033	8.626934689154893	1.6191572348775096	1.19122878	0.2551721	0.07289074
H	1.5539941937703692	6.101464635487803	3.460677232750775	0.02907485	-0.20710824	-0.01436445
H	2.750074212185055	8.986334576118718	3.0051973100456055	0.3135684	0.07717294	-0.38799064
H	7.656849230099132	6.976292625632923	3.399837263617223	-0.15788013	0.01488435	0.92849942
H	7.941562281564147	8.946854670378196	0.8920386902781333	0.12540861	0.23271111	0.43549744
H	10.605214254422664	7.424512165400504	4.542447260059853	-0.26479987	-0.23267999	-0.17678827
H	10.27025429931289	8.98603463449995	3.7246573021924307	0.17885462	-0.07125571	0.47348887
H	0.4128342726847818	11.942804577485962	2.5553573011140363	-0.12573371	0.77453055	-0.40886146
H	3.7041442045112873	11.81618088322433	4.046577338908125	1.02871625	0.33079181	1.55063099
H	3.816734225295987	11.29249464716264	1.8148473628518322	1.41954373	0.6295681	0.35768414
H	0.0083442693264548	10.219794637308912	2.3157673546238025	0.8747687	0.80435784	0.15252196
H	7.304942282895169	14.39101088204346	1.8150986432725018	-0.14606256	-0.40976047	-1.11865238
H	7.951338190411166	13.782040957167629	4.5504759300444615	0.16512795	0.37040933	-0.21665958
H	5.588544240834191	9.72269471272637	0.6617273022704819	-0.21646466	0.25567716	-0.0842337
H	6.448809260175495	13.040281005789756	0.9402887287034933	0.06104487	1.30110644	-0.2849983
H	8.197128301730721	10.406664613772827	4.572017291498649	0.24804973	0.01554672	0.21698186
H	10.623214166582203	13.931640987350526	0.4310786542512177	1.33903025	-3.56608902	-0.82752688
H	3.569184260802076	3.1897146454576726	8.436777323905847	0.16950689	0.23750538	-1.05689904
H	2.20841430305603	3.7513246687894464	9.514137350882816	0.89439071	-1.38598982	-0.15162808
H	6.995852258314957	0.8710346447952906	7.735470315697395	-0.04034882	-0.29178421	-0.9674893
H	8.195771161970022	0.9340446026344881	6.442690305319958	1.1681368	0.420832	-0.44471107
H	5.721264304089286	3.2673045937014815	9.039747273801185	0.14844896	0.67553112	-0.38407481
H	11.290579757003323	4.3436246781574965	6.364250284970934	-0.23466226	1.18167119	-0.02595881
H	10.499779765245401	3.437484600840875	8.874267247553792	-0.38729035	-0.11826589	-0.27436312
H	11.115979720390678	2.6238146923355674	6.114783252037595	0.07762956	0.0708708	0.77720445
H	12.64354975281357	3.31315468810729	5.811877297890783	0.71807192	0.32702305	-0.86083195
H	14.410299709115218	3.318424658020901	7.217591356225591	0.01477571	-0.08762584	-0.04976733
H	14.05626974092142	3.7090145779910144	8.981207331098762	0.28305512	-0.09232512	-0.6789039
H	12.771659717608385	1.2173546822645391	7.106979480957624	0.60767382	-0.551105	-1.53977418
H	11.415379740419537	1.3539045829978167	8.240077297604905	0.42403805	-0.01276258	-0.2098194
H	13.093619686788209	1.390964613427317	8.840437318200072	0.20650305	0.15306893	0.14752291
H	4.014354243373984	5.653574613111884	8.585997364683482	0.32076645	-0.39576051	0.95648415
H	0.8059342551026596	7.380886169116361	8.103327337196573	-0.16411416	0.06652111	-0.35180695
H	0.9012742489846618	5.462504588352823	6.627992245949455	-0.50734697	0.02717665	-0.49437913
H	1.3783841892402056	9.35534471373644	5.557637239685796	-0.83521385	0.64555422	-1.76532121
H	9.861714204635526	9.01853465783737	8.314207337651014	-0.33849789	-0.28993713	0.02513906
H	6.936550301352518	9.466124594322457	5.163877346573666	-1.73662808	-0.42575765	1.12306979
H	8.11093518989625	7.692733695604222	7.634645349624794	-0.20349515	-0.58987061	0.29365436
H	13.21433966049276	5.739784672841905	6.704854236836416	0.53868721	-0.32692709	1.68223197
H	12.912634295012047	8.970914633763904	6.615584261951391	1.33863822	1.12319757	0.82702125
H	13.489419730085444	5.90789466442281	8.580267273662143	-0.1093785	0.55623734	-0.02724218
H	11.669679709000992	4.848814658667156	8.945547368128379	-0.42103745	-0.82368185	0.5494207
H	1.3830987058529782	11.928774696457188	7.000384039510359	0.29410379	0.14818512	-0.12549018
H	2.1060288239315605	10.399804621453995	9.51577733196933	-0.51135223	0.0769272	0.30800622
H	5.096554195460404	13.711170913069576	7.393395302244779	-0.72141779	0.35060427	0.11128334
H	5.545554176621413	12.100950996130928	6.833051254400886	-0.24494855	0.5524571	-0.32013579
H	8.790034270329636	10.243214609823594	6.862822339125577	0.07855323	-0.90031856	-0.43402682
H	9.378104271415008	12.748060972099129	8.280117298322674	0.09322065	1.16518446	-0.56383145
H	12.316664209053167	11.631094686546108	8.525437335834248	-1.50448183	0.55899323	0.0848196
H	3.243994290105135	2.108634592830398	9.788117252042191	-0.19548159	1.37979779	0.2628048
H	3.9601542610199507	2.943314697583769	11.956997305093147	0.11804732	-0.02864711	0.08647105
H	2.7903742870565873	4.31472467560562	11.905037261793257	0.24272631	-0.16541758	-0.25415386
H	4.496514171327969	4.671294666055662	12.330907347693453	-0.45834663	-0.82997387	-0.78895245
H	7.995713239225307	2.3684346741785167	13.627957243514054	-0.11541677	0.17815785	-0.41730046
H	5.684094255908016	2.743844576234418	10.65040729334748	-0.45357203	-1.00084157	0.71173911
H	6.2416042481420595	4.29342463678319	10.460147341053698	1.62095856	1.88260942	0.25345959
H	5.389784213508338	0.5927446558659081	14.047457312851561	0.88173359	-0.40715728	0.64821908
H	8.836124294729192	0.6568346343679751	12.111927317088854	0.51243472	0.16144752	0.29176918
H	10.215734249402066	1.655654652075368	12.775457295833425	0.10982168	0.29670459	0.0886149
H	12.028079687959762	3.2032646776052407	9.792507277317817	-0.5998738	0.90907815	0.57196366
H	13.441244156742268	3.6923647162999775	12.786087355057822	0.05092638	0.09489654	0.17312873
H	4.514404185233394	7.728487631048289	9.95778726350682	-0.4269935	-1.52487944	0.50419885
H	2.8434542551281354	5.834844669454338	9.880617251459038	-0.71350337	-0.13765221	0.25335393
H	4.398034227328448	6.834633618336167	11.546917356595028	-0.15411519	-0.44454659	-1.39085432
H	6.452376213886827	7.170625651638594	9.885367261991695	0.80252596	0.1654922	-0.16228972
H	7.143824184933343	7.848164625481285	11.906297282566259	-0.17388598	-0.74158812	0.1927416
H	6.831515267150109	9.562234603008674	11.61268725651636	0.59368097	-0.59664482	0.18442312
H	11.144634283097576	5.243594672160074	12.991587262219715	-0.03151307	0.59919508	-0.35253847
H	11.062294275145524	8.731034628956577	11.953437257889018	-0.81032775	-0.46111181	0.08496971
H	9.878474280831208	8.343738584454535	13.245617292838071	0.34549024	0.46585794	0.3408279
H	0.43854883492787	10.193754684131964	10.110237328816275	-0.89216141	-0.55050122	2.03953544
H	0.346418699486759	13.995924578961004	9.782557238494517	-0.04952409	-0.79572683	-0.52125989
H	3.0805087882433817	14.389604662246375	11.515137331226056	0.54123822	-0.07256313	-0.07593378
H	2.382454184416579	12.156854689239925	13.365915912525422	1.13429641	-1.33848545	0.47312173
H	8.551914227726398	12.953900993569642	14.357677322100006	-0.68928999	1.45731881	-0.00067197
H	7.675354200272856	13.908960986246457	13.143077366843755	-0.78098569	0.02944357	0.57179858
H	14.581234298298224	12.521044697236155	10.686127326234093	0.41473691	0.24955349	-0.43112158
H	9.891094214308255	10.737364603536019	11.040187373575788	-0.24878188	0.19531703	0.05894606
H	10.332294233533466	14.330800956401026	12.772307316274318	0.28008168	-0.6086124	-0.2438003
C	0.9698042527429542	2.0156346570041146	3.307287326559172	0.43517608	0.6000672	0.46181734
C	1.4142841868432812	3.3803446404248896	2.693507252437529	0.03110648	-1.0062686	1.80081383
C	3.9022842397997843	4.249684665569357	2.8853873555081275	0.81777581	-0.3956704	-0.19731914
C	2.438604194282276	4.354734636905237	3.3552472924251875	0.33757971	0.22193885	-1.01015125
C	4.393504256840506	2.9078146809704064	2.44782737441571	0.40404942	0.65766672	-0.62171781
C	8.47725421191792	1.9911446185989026	0.046448664672345596	-0.86961045	1.08300062	1.0550785
C	10.157464180763625	0.33839459596589994	0.7377886986835239	-2.92680391	3.20657583	1.12563826
C	2.610814166034242	9.220704686571832	1.9339673094599719	-2.12506614	0.06781034	-0.22752427
C	3.8064042337419104	8.90695464439051	1.0855373519109022	1.62630893	0.40591459	-0.72960159
C	7.755900289553991	8.923164620561765	3.2784472531626774	1.44840624	0.98977558	-2.3176701
C	7.868482164241689	9.366144631821008	4.70059730905914	2.05935866	0.58689893	-0.81829962
C	10.367254171542395	8.478564578308218	4.705807324878024	-0.97856864	-0.89018248	0.47302566
C	0.9148241705177427	10.732864613622105	4.177627315626626	-1.11815498	0.67321707	0.32279965
C	0.8164342779178174	10.954434618110604	2.6547572350774837	-0.61203151	-1.76738444	0.78114272
C	2.107014205447214	10.730244632959842	1.8479473341632497	0.03951182	0.24054326	0.73777837
C	1.8157242914836849	11.134824614869368	0.3858672851064549	-1.79993528	-0.94003552	-1.82132196
C	6.893850238193047	14.089190985287464	0.7927587514003626	-0.62948774	-0.24471748	0.58815387
C	2.314394284510787	4.37705467921237	4.899157331561468	-1.16517679	1.56098078	-0.88712258
C	3.2045842133588938	3.190344681556357	9.43948723563425	-0.70856622	1.03132479	1.28506404
C	6.211984298884879	1.6290246261611603	5.865117337020155	0.23492456	0.1848793	-0.31913353
C	7.173565288869586	0.7280846910797061	6.627662368023934	-1.51574311	0.26971413	0.52384519
C	11.534179753115907	3.7360546251079847	8.958247306394007	1.35738057	0.62446079	0.40764121
C	13.756249728855204	3.8520046393400857	7.910518249252783	0.22094357	1.24617747	1.2502373
C	12.454179657447646	1.66161467526583	8.000495312187907	-1.08575467	1.50977354	1.74139357
C	11.806779706448317	3.421404613798292	6.4626523345910085	-0.36337537	-1.14509914	0.15101027
C	0.7969488138866414	9.38578467628771	8.256037367733862	0.47240957	-0.81027727	0.42334667
C	8.387483186168877	7.251743628908559	5.798297299165667	-0.5621429	-1.77832456	0.75856619
C	8.961304182487455	8.615914611902339	5.535937235754043	0.79008779	1.08621079	-0.65185254
C	13.83008965486176	5.450004712551103	7.655110373977541	0.1258343	-1.4487668	-2.37240378
C	11.483494293230677	9.09860464284243	5.4777472907804095	1.26754438	2.1471781	-1.13787103
C	4.446674276311652	13.141430870449263	5.372977251052651	-2.08362708	0.63411747	-1.20478184