197
Lattice="15.146405 0.0 0.0 0.0 14.753835 0.0 0.0 0.0 14.802382" Properties=species:S:1:pos:R:3:REF_forces:R:3 REF_energy=-1149.1493678 REF_stress="-0.0046886453606151636 0.0016662522504335372 -0.001909574050876077 0.0016660500567454045 -0.002051071259771063 -0.0010451434369101486 -0.0019089941335386636 -0.0010442004135378282 0.0033052473998502127" pretrained=F config_weight=10.0 head=target_head pbc="T T T"
Li      14.24122425      11.40292916       6.44584024       0.31946888       0.43139945      -0.02245457
Co       3.45204422       1.73609914       4.47091912      -1.31882807      -0.00388454      -0.49775842
H        0.67829420       1.74510916       1.93572915      -0.36795542       0.33207231       0.68139662
H        1.45712419       3.79174909       0.97100919      -0.23415826       0.53086968      -0.03483166
H        2.60361423       4.70170915       1.97085920       0.75220472       0.92287079      -0.05556739
H        4.05371427       2.04321911       0.13362688      -0.10789312       0.13189486       0.07923094
H        7.36316522       2.02159913       3.82074919       2.18274922      -0.36343580      -0.61669127
H        8.88900426       1.76734909       0.51773686      -0.11238928      -0.79135022       0.04791184
H        5.42954421      14.52073442       1.00893689       0.58965416       0.55764137       0.70467983
H        7.16739824       1.55110921       0.33592689      -0.25421150       0.11370667       0.67934488
H       14.39021960       2.40053915       2.82792913       0.41180084       0.36553052      -0.44309751
H       14.96137964       4.89660908       3.71480913      -0.48512011       0.64257000       1.05461232
H        3.46744417       9.08234916       1.80652922       0.12802588      -0.03109324       0.32425356
H        4.00139419       9.66593918       3.39453916       0.05273665       0.03688075       0.05149016
H        1.03623421       9.46514908       2.55533912      -0.19443365      -0.36071106      -0.38405815
H        8.85055420       8.29260115       3.87500925      -0.68571922      -0.55790510       1.05185935
H        6.73362518       9.74378912       0.96812924      -0.04363810       0.08437399       0.13188503
H        9.92665420       9.44862921       0.95906678      -0.07599163       0.46675812      -0.32710626
H       11.12372415       8.34525021       5.00708923      -0.07663086      -0.18598233       0.07153076
H        3.71082419      12.50231917       2.51008912      -0.49028260      -0.14352603       0.19780951
H        3.86960426      12.23122438       4.31714916      -0.50840401       0.14165538       0.20660228
H        0.48117419      11.10989911       2.63754918      -1.11219036       0.70347030      -0.06208060
H        4.88702421      13.76988445      14.42766923      -0.02611469      -0.01191229      -0.27668045
H        8.10425718       0.43953918       1.50817684      -0.08826513       0.33052786      -0.64315707
H        8.45140613      11.00765916       4.91664919      -0.16191329       0.20052217      -0.42638886
H        7.87953814      14.19780439       4.61553158      -0.56539109      -0.17573315       0.02646420
H       10.22680415      11.26998914       4.91717912      -0.04628369       0.65896706      -0.29911551
H       14.45374953       0.11491910       5.00296914       0.20612709      -0.50532383       0.58591378
H        3.48726415       2.66104909       8.06310324      -0.33640994       0.17197242       0.35299188
H        5.76007422       3.38271908       8.04019212       0.20002868      -0.14221305      -0.21176761
H        3.98655420       4.73762913       7.00298711      -0.25663332      -0.51710862      -0.97954334
H        6.44794413       4.52688918       9.22660913      -0.96934131      -0.45676701       0.37627325
H        8.10557325       1.40000913       5.81510925       0.62455807      -0.25379990       0.08567360
H        6.91150017       1.49183907       7.18298201       0.12329622       0.59932233      -0.11021338
H       11.78145953       1.12432915       9.76159920      -0.42812839      -0.54270333       0.32802719
H       11.19415963       3.85770921       9.70012920       0.01451350       0.34477325      -0.52967074
H       13.92103954       4.07649915       7.58912519      -0.07996718       0.18560532       0.06091280
H       11.07885959       4.04775912       7.81274419       0.12458627       0.44454197       0.07574503
H       10.51875960       2.61629909       8.61561919      -1.06288177      -0.36164798       0.16788699
H       10.06915961       1.76319913       5.81437920      -0.24602673       0.18810433      -0.38513295
H       13.61360962       1.48329911       7.39329515      -0.28050856      -0.12601475      -0.87868922
H       12.62675966       2.82792913       6.57889812       0.31761672      -0.15328229      -0.59659119
H       11.33155964       0.29964921       7.72535714       0.04300309       0.12810361      -0.43317228
H       11.74145954       0.58972909       5.97751921       0.19617244      -0.46850135      -0.21497575
H       13.58695967       1.23153907       9.68665918       0.47048044      -0.65179425      -0.30271444
H       14.68994954       3.07413907       8.91633921      -0.59979738       0.09049499      -0.48841116
H        4.96449413       6.98978615       6.74060112      -0.56762317      -0.27125401      -0.74372905
H        2.19642417       9.64868915       6.02440916      -0.15184059       0.00244187       0.48013394
H        2.26859422       3.94119910       8.44364925       0.39802196      -0.58310991       0.68395363
H        3.14455416       5.87300919       8.06635621       0.57781396       0.00353129      -0.26322120
H        4.81577415       8.58801911       8.84480921      -0.54686166       0.19512389       0.07351740
H        6.13548424       5.72696909       7.13939032      -0.51115924       0.37898094       0.40861328
H        4.45755424       5.84370911      10.59681919       0.85088282       1.05689942       0.11846040
H        6.56234418       7.63310707       8.30701912      -1.16156450      -0.63773669       0.07974643
H        8.24704613       9.02810920       8.31493913       1.05356862       0.01130540      -0.78365285
H       10.74725418       7.97482316       6.76101316       0.37916144       0.19884826      -0.67594441
H       13.62576416       9.50513920       7.72851315       0.67554167       0.58422260       0.35898887
H        1.08114875      12.70977919       8.35388924      -0.68206706       0.36182400      -0.38777168
H        4.85407426       0.11351911       7.24618256       0.31429667      -0.48369141      -0.43386406
H        3.34814881      11.14718913      10.74812914       0.03146687       0.23001149      -0.19703112
H        5.41229427      13.15985437       7.28800284      -0.38388524       0.06375925      -0.17638448
H        9.13609423      11.24099918       7.11785626      -0.30383929       0.66638086      -0.27642436
H        8.36488623      14.16712438       9.09954918       0.91241430      -0.25435023       0.44424241
H       10.54331420      10.25805913       8.56136920      -0.66000297      -0.01377262      -0.07608265
H        5.45047427       2.95379912       9.71983917       1.12829332       0.10400117       0.22282605
H        3.02588420       2.81149911       9.84820913      -0.14224800       0.66867008      -1.41208895
H        5.08508421       0.91484918      13.22682922      -0.40578119      -0.12641421      -0.88524046
H        7.01894120       1.18499913      12.83779922       0.12227476       0.17995163      -0.32573129
H        8.72819427       1.80671911      12.98132919      -0.57744956      -1.24043068      -0.13473626
H        8.35039218       0.23235918      12.08501918       0.21115444      -0.06821469      -0.43684943
H       10.16796416       0.21701918      14.03785915       0.07187751      -0.28826012       0.02400143
H       12.74655955       2.46924908      10.62018919      -0.47768058      -0.95196540      -0.50211818
H       13.56657958       4.33725917       9.41075920       0.07529382       0.42596350      -0.18321932
H       11.79493423       3.52177914      13.53030914       0.79077563       0.67826608      -0.87309045
H        4.13831421       4.14396917      11.14778917      -0.07988144       0.73723281      -0.66873667
H        2.84400419       5.13722908      10.36294924       0.31828556       0.14689206       0.20031683
H        8.00595019       8.98944913      12.14407921      -0.59069705      -0.21818088       0.20661625
H        9.41415422       7.87736213      12.51927919      -0.59513018       0.88869532      -0.10715984
H       14.17539419       9.14208907      10.46152911       0.05917281       0.40055806       0.10192993
H       11.97885415       6.46533909      12.03246924       0.81396007      -1.52405665      -0.35525102
H        2.76184888       0.07755383      11.58986913      -0.97877838      -0.14448708       0.02644047
H        2.35466882       9.77642918      10.99816921      -0.30644140       0.44756183      -0.31881003
H       15.14052420      12.90507910      10.73583916      -0.59070609       0.67282504      -0.73228915
H        0.44120873      11.59934918      11.77068911       0.43521104       0.56853517      -0.05733681
H        2.64736416      12.54450909      14.13920158      -0.13423870      -0.23903483       0.80539557
H        9.56742418      13.87259445       0.47054686       0.22710546      -0.66065006      -0.17720030
H        7.12650325      13.15350447       0.22613688       0.40445374       0.16356585      -1.04448028
H        9.63621415      13.36615445      13.43839922      -0.73477475       0.74641520       1.06836783
H        9.58556427      11.85325915      11.39240920       0.02125050      -0.52775783       0.85919225
H        6.72288714      13.54978437      13.23365918       0.72799949      -0.03564568       0.60943791
H       11.93706416      10.60608913      11.48681923      -0.74016906      -1.71959588       1.36427879
H       11.48541425       9.76520918      13.10674918       0.30773301       0.56489285       2.21589404
C        2.03373421       3.80801918       1.90334924      -0.45494538      -1.96393562       0.85960942
C        1.02913418       3.66368920       3.03957922      -0.45510371       0.13545789       0.37913876
C        2.90305427       2.57900921       1.66520925       0.76449329       0.71325556      -1.93840701
C        0.47102413       1.28497909       4.02681923      -0.16666535       0.48615770      -1.37107696
C        0.34162414       2.27087920       2.87114913      -0.30360954      -0.78061274       0.61268353
C        1.55986422       4.02666910       4.48933920      -0.91851034      -0.19443258      -0.25948898
C        8.08256617       0.99744912       0.54327689       0.19630374       1.13633483       0.25365907
C        3.78016413       9.98626914       2.36943925      -0.89327207      -1.78248051      -0.82432130
C        1.15096414      10.23193909       4.46645916       0.11576790      -0.51343037       0.45569105
C        1.24047424      10.44991919       2.96961916       1.57259700      -0.68955248       0.26914532
C        2.55709416      10.94364920       2.35441913       1.91824764       0.77480808      -0.29454573
C        2.34763422      11.25775910       0.82755916      -1.16842712      -0.32483332      -0.71930394
C        5.62062414      14.52953449      14.74733911      -0.04041072      -0.80569770      -0.97165047
C        9.68224423       9.94169914       3.29412913      -1.51146015      -0.58274337       2.50849748
C        9.42895422      10.54206914       4.78077916       1.43949597      -0.85286646      -1.31225696
C        5.05796426      10.46360912       1.69755912      -0.14586243      -0.61917023       1.67727596
C        3.14201426       3.36829912       8.85039918       0.63424227      -1.10438547      -0.26769639
C        5.60913423       3.80681910       9.03462919       0.40166475      -1.39687626      -0.15266907
C        6.10567415       1.86736918       5.18299912       2.52572427      -0.96061203       1.65357206
C        7.09942617       1.20448910       6.14485911      -1.51934455      -0.17591588      -0.23247550
C       12.65085956       1.75734909       9.73431915       0.37808165       1.60207841       1.40861635
C       11.21685955       3.41591919       8.68468918       1.16465343      -0.20788210       1.17181750
C       11.49825961       1.05779909       6.92568019      -0.25656102       0.28957457       0.73066723
C       12.63465957       1.98968909       7.27494462       0.54002828      -0.56351775       0.07783031
C       13.79254956       3.65319907       8.58594914      -0.90662501      -1.12605786       1.23821215
C        4.11743414       5.36573914       7.85735916      -0.94246189       0.91554534       1.34018275
C        5.24755424       6.30032910       7.52882324       1.60633357       0.62272398       0.32827708
C        8.43205114       8.60413915       6.17541922       0.89346040       1.06722240       1.35063208
C        9.68780417       9.61527909       5.99150924      -2.81011998       0.39499887      -0.24838583
C       10.90829425       8.77521917       5.99262919       1.25550246      -0.88324801       1.31640921
C       12.14782427       9.56980910       6.42435621      -0.01699548      -3.24145665       1.37336006
C        1.36758879      11.44575910       9.85988924      -0.09112191       0.82110859       0.48501094
C        0.15635877      10.54987908       9.55298923       0.86516692      -0.45269343      -1.84758414
C        2.57134875      10.56502920      10.23659921       0.34769889      -0.59171007       0.33106588
C        4.50757419      13.73531444       5.43233918      -1.02065995      -1.24676093      -1.04631662
C        3.19634881       9.80868918       9.08001921      -0.75747643      -0.70752405      -2.45218249
C        5.31064417      14.04574443       6.64207513       0.25394777       0.33974302       0.62588459
C        7.71893323      13.78991440       7.23209024      -0.88504346       1.97936702       1.47671788
C        6.75094525      14.41441445       6.17111913       1.09181628       1.10296855       0.89981652
C        8.06337416       0.88240918      12.90261915       0.21652609       1.34275679       0.32062653
C        3.93306421       4.95098921      10.38338911      -0.88683314      -1.15727310       0.32040475
C        8.90529422       9.28563916      14.09076923       0.44350209       1.09900615      -1.73135704
C        8.98902415       8.92708910      12.58880923       1.12069929      -1.66336076       0.26062536
C        9.69574422       9.68628915      10.23272913       1.07436243       0.61586185       0.35815139
C       11.41216426       9.72906908      12.07270922       0.57002132      -0.07597654      -3.26530125
C       12.06105414       8.35626114      11.66767918       0.40310362       0.58855003      -2.01620739
C        0.85100881      12.34046915      11.03531919      -1.47938098      -2.73851170       0.44465373
C        1.84706885      13.14666917      11.67737918       0.12936999       0.66163218       0.78532000
C        6.95968513      13.95206436      14.25002924      -0.95241291      -1.93573322       0.72104630
C        9.43386423      14.16718443      14.22655918       2.13336543      -0.86103104      -0.49720018
C        9.85326426       9.85535910      11.74976920       1.37979236       0.70612405       0.81518189
N       12.53245966       2.66303909       8.58346915       1.17990308       2.02176459      -0.39497788
N        4.26929427       4.37713908       9.02462914      -1.08449702       1.67903599       0.25678647
N        8.16180216       0.08168918      14.17024914      -1.22962152       0.98648466       0.06263966
Cl       9.25327425       1.66984911       3.68766911       0.02358517      -0.14257027       0.16211223
Cl      14.66861416      13.82619910       6.89837320      -0.08190664      -0.49996237      -0.18559787
Cl       4.60524881       0.78598387      11.40257917      -0.38076560       0.15689548      -0.41335928
Cl      10.91055955       2.73389379      14.04792921      -0.62420232      -0.53745798       0.73061115
Cl      12.87312413       4.42148911      11.98623148      -0.10603004       0.50750783       0.09981858
Cl       9.83877415      14.20895386      10.25847921       0.06286350      -0.49333863       0.15563463
O        3.10274418       1.52607918       2.29404924       0.36617211       0.72188256       0.60166825
O        3.40473427       2.77460921       0.41974923       0.51144486      -0.91409705       0.47818302
O        1.49193426       1.00467909       4.65871916       0.34679969      -0.07010640       0.53501330
O        6.39327424       2.12142919       3.94620915      -1.80967397       0.47907716      -0.04198834
O        0.07316426       4.64249920       2.82609911      -1.09945474       0.82410520      -1.62290545
O       14.43702956       0.72660913       4.21807918      -0.25178160      -0.27846743       0.46254918
O        2.26839413       9.70411916       5.04506919      -0.61876865       0.67189039      -0.86938943
O        9.37445413       8.64829915       3.13863913       0.50089556       0.08680611      -0.95507905
O        5.96367417       9.48166909       1.56482911      -0.30386655       0.05185716      -0.55409314
O        0.07376421      10.37963915       5.05181922       0.68091173       0.32295137       0.14147226
O        4.05665419      14.56902446       4.61781914       0.00568888      -0.20267308       0.01904357
O        3.00560422      12.10089918       3.09876921       0.00333589       0.96106281      -0.88689909
O        2.66943414      12.50718911       0.37249914      -0.15644330      -1.15647181      -0.09022076
O        5.26413426      11.64867908       1.52999911       0.52108982       1.28284458      -0.80772578
O        6.98212423      13.88828442       4.91411917       0.72692727      -0.61400430      -1.05718603
O       10.08816426      10.54706921       2.33587914       0.69558473       1.13637995      -0.66594172
O        2.72654427       3.58722907       4.66147921       2.31552926      -0.63970531       1.17294420
O        0.88510413       4.70008917       5.31747921       0.27198130      -0.64265088      -1.18952095
O        4.99699423       2.04536918       5.66687923      -2.36851628       1.08028011       0.31964042
O       10.30895962       1.85941907       6.76050514      -0.11152631      -0.60409472      -0.51356427
O        2.64864873       9.59497914       7.95056117       1.05766574       0.25147813       2.20436856
O        7.90419619       8.63055914       7.40572722      -1.10565054      -0.75014740      -0.04057899
O        5.67589413       7.22255121       8.60542923       0.88915610      -0.48676777      -0.42262503
O        7.99041619       7.85246916       5.31382923       0.15624069       0.22022781      -0.20343881
O        8.79137417       9.07018920       9.70751914      -2.09228761      -0.99892963      -0.50669864
O       12.84286418       8.99251911       7.42810117      -1.72052530      -0.97562111      -0.28713200
O        4.39394873       9.31266907       9.42023924      -0.10892286       0.30824708       0.35242919
O        1.81215881      12.29806914       8.83857918       0.56562032      -0.54288796      -0.23259761
O        4.32079417      12.43202437       5.20979913       0.88736307       0.71879386       0.94679856
O        8.40985924      12.84064438       6.97059624       1.16218264      -1.83536304      -0.50695927
O        7.67239499      14.43284435       8.41358917      -1.20984941      -0.07654630      -1.69189351
O        9.74253419      10.47418910       7.13528503       0.70118042      -0.85483488       0.21184698
O       10.66134423      10.26872911       9.55440922       0.71346170       0.48612558       0.50718943
O       12.55012415      10.52377910       5.84558913       0.84440158       3.39620793      -1.62575687
O       14.81632418      10.51108918       8.39958922      -0.52825476       0.19289712       0.38446551
O        5.36057415       1.02050921      14.16827924      -0.83387166       1.38520521       1.38529323
O       15.01183413       9.76546915      10.54855913      -0.71394712      -0.46519542       0.23778457
O        1.86795423      10.33311912       0.15350914       0.66324423       1.10314506       0.31912170
O        7.86377513       9.79531911      14.46487916      -1.17903551      -0.00719364       1.25367021
O       10.02869417       9.20213909      14.79142919       0.10739648      -0.84935836      -0.06076724
O       12.96175423       8.25634920      10.76615918      -1.29705246      -0.04738136       1.87670826
O       11.47892417       7.28288614      12.21566915       0.00123079       1.86089730       0.20955384
O        1.78089875      14.43009910      11.44881915       1.36807880       1.55995064      -0.63001466
O        2.65134873      12.64799912      12.45291922       1.47018712      -0.71168709       1.16733452
O        9.43354419      11.18490908      12.14178913       0.23696009       0.58983248      -1.44566120
197
Lattice="14.811085 0.0 0.0 0.0 14.427206 0.0 0.0 0.0 14.474679" Properties=species:S:1:pos:R:3:REF_forces:R:3 REF_energy=-1148.02780116 REF_stress="0.0034085085558627076 -0.0018083100654367008 0.0031741071577119345 -0.0018080417055103245 0.01059055256437805 -0.000967181838682838 0.0031743104311811464 -0.0009679859884771078 0.005496090490699539" pretrained=F config_weight=10.0 head=target_head pbc="T T T"
Li      14.02675421      13.02529460       5.39094728      -0.13447333       0.03235736      -1.00399946
Co       3.40418418       1.72893462       4.98790738       0.71952502      -0.31541919       0.02541883
H        1.73552419       3.07349470       1.73016731       0.44773723       0.06864846      -1.42446639
H        0.49306429       3.94228461       2.57839737      -0.26041410       0.18785160      -0.17764146
H        4.59479417       4.58828470       3.69618735      -0.27553822       0.04519420      -0.50568230
H        5.55412417       2.01235463       1.11621875      -0.33783125      -0.05287468       0.06901670
H        9.70168428       0.35721460       1.76624863       0.86161352      -0.10987759      -0.65718245
H        7.52647184       1.93870461       4.32502731      -0.26619988      -0.33774225       0.66099166
H        7.68697824       2.00451460       0.82571875       0.74357044      -0.28028911      -0.22097374
H        9.29072420       2.66088468       0.36102874       0.02326821      -0.14168497      -0.23739348
H       14.10424966       0.92551466       3.02857725      -0.13554566      -0.54756726       0.31611763
H       10.83355424       1.13866466       0.51469873       0.76060625       0.84388707       0.61529420
H        4.05713429       4.84124470       1.96994731      -0.22283389       0.51120461       0.48820145
H        1.69190421       8.62693469       1.61915723       1.19122878       0.25517210       0.07289074
H        1.55399419       6.10146464       3.46067723       0.02907485      -0.20710824      -0.01436445
H        2.75007421       8.98633458       3.00519731       0.31356840       0.07717294      -0.38799064
H        7.65684923       6.97629263       3.39983726      -0.15788013       0.01488435       0.92849942
H        7.94156228       8.94685467       0.89203869       0.12540861       0.23271111       0.43549744
H       10.60521425       7.42451217       4.54244726      -0.26479987      -0.23267999      -0.17678827
H       10.27025430       8.98603463       3.72465730       0.17885462      -0.07125571       0.47348887
H        0.41283427      11.94280458       2.55535730      -0.12573371       0.77453055      -0.40886146
H        3.70414420      11.81618088       4.04657734       1.02871625       0.33079181       1.55063099
H        3.81673423      11.29249465       1.81484736       1.41954373       0.62956810       0.35768414
H        0.00834427      10.21979464       2.31576735       0.87476870       0.80435784       0.15252196
H        7.30494228      14.39101088       1.81509864      -0.14606256      -0.40976047      -1.11865238
H        7.95133819      13.78204096       4.55047593       0.16512795       0.37040933      -0.21665958
H        5.58854424       9.72269471       0.66172730      -0.21646466       0.25567716      -0.08423370
H        6.44880926      13.04028101       0.94028873       0.06104487       1.30110644      -0.28499830
H        8.19712830      10.40666461       4.57201729       0.24804973       0.01554672       0.21698186
H       10.62321417      13.93164099       0.43107865       1.33903025      -3.56608902      -0.82752688
H        3.56918426       3.18971465       8.43677732       0.16950689       0.23750538      -1.05689904
H        2.20841430       3.75132467       9.51413735       0.89439071      -1.38598982      -0.15162808
H        6.99585226       0.87103464       7.73547032      -0.04034882      -0.29178421      -0.96748930
H        8.19577116       0.93404460       6.44269031       1.16813680       0.42083200      -0.44471107
H        5.72126430       3.26730459       9.03974727       0.14844896       0.67553112      -0.38407481
H       11.29057976       4.34362468       6.36425028      -0.23466226       1.18167119      -0.02595881
H       10.49977977       3.43748460       8.87426725      -0.38729035      -0.11826589      -0.27436312
H       11.11597972       2.62381469       6.11478325       0.07762956       0.07087080       0.77720445
H       12.64354975       3.31315469       5.81187730       0.71807192       0.32702305      -0.86083195
H       14.41029971       3.31842466       7.21759136       0.01477571      -0.08762584      -0.04976733
H       14.05626974       3.70901458       8.98120733       0.28305512      -0.09232512      -0.67890390
H       12.77165972       1.21735468       7.10697948       0.60767382      -0.55110500      -1.53977418
H       11.41537974       1.35390458       8.24007730       0.42403805      -0.01276258      -0.20981940
H       13.09361969       1.39096461       8.84043732       0.20650305       0.15306893       0.14752291
H        4.01435424       5.65357461       8.58599736       0.32076645      -0.39576051       0.95648415
H        0.80593426       7.38088617       8.10332734      -0.16411416       0.06652111      -0.35180695
H        0.90127425       5.46250459       6.62799225      -0.50734697       0.02717665      -0.49437913
H        1.37838419       9.35534471       5.55763724      -0.83521385       0.64555422      -1.76532121
H        9.86171420       9.01853466       8.31420734      -0.33849789      -0.28993713       0.02513906
H        6.93655030       9.46612459       5.16387735      -1.73662808      -0.42575765       1.12306979
H        8.11093519       7.69273370       7.63464535      -0.20349515      -0.58987061       0.29365436
H       13.21433966       5.73978467       6.70485424       0.53868721      -0.32692709       1.68223197
H       12.91263430       8.97091463       6.61558426       1.33863822       1.12319757       0.82702125
H       13.48941973       5.90789466       8.58026727      -0.10937850       0.55623734      -0.02724218
H       11.66967971       4.84881466       8.94554737      -0.42103745      -0.82368185       0.54942070
H        1.38309871      11.92877470       7.00038404       0.29410379       0.14818512      -0.12549018
H        2.10602882      10.39980462       9.51577733      -0.51135223       0.07692720       0.30800622
H        5.09655420      13.71117091       7.39339530      -0.72141779       0.35060427       0.11128334
H        5.54555418      12.10095100       6.83305125      -0.24494855       0.55245710      -0.32013579
H        8.79003427      10.24321461       6.86282234       0.07855323      -0.90031856      -0.43402682
H        9.37810427      12.74806097       8.28011730       0.09322065       1.16518446      -0.56383145
H       12.31666421      11.63109469       8.52543734      -1.50448183       0.55899323       0.08481960
H        3.24399429       2.10863459       9.78811725      -0.19548159       1.37979779       0.26280480
H        3.96015426       2.94331470      11.95699731       0.11804732      -0.02864711       0.08647105
H        2.79037429       4.31472468      11.90503726       0.24272631      -0.16541758      -0.25415386
H        4.49651417       4.67129467      12.33090735      -0.45834663      -0.82997387      -0.78895245
H        7.99571324       2.36843467      13.62795724      -0.11541677       0.17815785      -0.41730046
H        5.68409426       2.74384458      10.65040729      -0.45357203      -1.00084157       0.71173911
H        6.24160425       4.29342464      10.46014734       1.62095856       1.88260942       0.25345959
H        5.38978421       0.59274466      14.04745731       0.88173359      -0.40715728       0.64821908
H        8.83612429       0.65683463      12.11192732       0.51243472       0.16144752       0.29176918
H       10.21573425       1.65565465      12.77545730       0.10982168       0.29670459       0.08861490
H       12.02807969       3.20326468       9.79250728      -0.59987380       0.90907815       0.57196366
H       13.44124416       3.69236472      12.78608736       0.05092638       0.09489654       0.17312873
H        4.51440419       7.72848763       9.95778726      -0.42699350      -1.52487944       0.50419885
H        2.84345426       5.83484467       9.88061725      -0.71350337      -0.13765221       0.25335393
H        4.39803423       6.83463362      11.54691736      -0.15411519      -0.44454659      -1.39085432
H        6.45237621       7.17062565       9.88536726       0.80252596       0.16549220      -0.16228972
H        7.14382418       7.84816463      11.90629728      -0.17388598      -0.74158812       0.19274160
H        6.83151527       9.56223460      11.61268726       0.59368097      -0.59664482       0.18442312