197
Lattice="13.508985 0.000000 0.000000 0.000000 13.158855 0.000000 0.000000 0.000000 13.202153" Properties=species:S:1:pos:R:3:REF_forces:R:3 REF_energy=-1148.41912844 REF_stress="0.001798301349923181 -0.0033214262153837067 -0.004547859821073729 -0.0033219394671621465 -0.002721872384969956 0.0016724277618419233 -0.00454812308168715 0.0016720047185948804 0.0003864980626735157" pbc="T T T"
Li	11.332014234454613	10.530498821542125	6.9302018002533865	0.11867182	-0.33671768	-0.33646944
Co	2.186214238507499	5.016298816471467	8.136004776873207	0.1742743	-0.57144297	-0.53109355
H	3.6690042550028865	2.4510587963036543	2.8350147255851708	-0.70897659	0.30045289	0.08361224
H	0.6374842971281786	3.6505187927823495	2.4189447663105454	-0.20301356	0.49964572	-0.34219553
H	0.5947243053566815	0.7006041329760989	2.877674712071247	0.74812558	-0.03759851	-0.8475336
H	8.64624419683995	0.5289988518035373	1.013221315651445	1.08950786	-1.34167045	0.32352085
H	5.676464220260334	1.702958830248941	2.276824772399807	-0.41404384	0.63526912	-0.64093874
H	10.382884261475025	0.031968779380853504	0.6645912568399467	-0.37215788	0.08378402	0.64018811
H	9.71897422729073	0.0231987975355974	2.3908212749456816	0.12327429	0.11254126	-0.26628939
H	11.928539692846677	3.4924988447183467	3.4233947032180567	-1.07492836	1.09930591	-0.42905119
H	3.7071141837890162	7.040906767811545	0.6043647489897578	1.2855175	-0.61050653	0.50537036
H	1.2650442180661285	5.26121878780362	1.8840647993348831	-0.67095071	0.02028215	0.50118426
H	0.3308042541631828	7.091867853668424	3.227474745723257	1.30081574	1.0950442	0.00674711
H	4.173894212120634	5.70819876187546	1.712264780165169	0.37244709	0.19075263	0.26238025
H	1.801384309213289	6.217633818146391	4.188044685142529	0.48948803	0.36657704	0.37691236
H	7.8382142264048635	6.5293587942526745	0.718391220424009	-0.66963909	0.38241541	0.45554972
H	6.904951232332555	4.6263687934709	4.185054793446178	0.15274038	-0.38758788	0.45273925
H	7.810474200150423	7.3330278138786	3.792544737146441	-0.09719873	0.21729895	1.44932812
H	13.21027980116975	4.661488855358545	1.3129047865375223	-0.91028722	-0.07424154	-1.60279061
H	12.464789679060619	6.899515795932019	2.1157747387145753	0.31077605	-0.17858429	-0.05982596
H	12.186269791798804	7.081197864803141	3.8090146876433355	-0.54805515	0.19414696	1.01595326
H	11.199254274282076	7.237153451752791	0.1853713048507353	-0.77551728	0.51048471	-0.04545289
H	11.124769780985861	5.110798867819719	4.069104768251348	0.40641696	-0.99319512	-0.75482988
H	11.139749759905868	4.906758852223857	2.239114669314238	1.21442442	-0.93182148	1.76914115
H	3.3333941792516364	12.473098816999848	0.0044912405889593	-0.07575043	0.45014436	-0.60214203
H	0.6046942068280113	10.006568760542063	2.640624765656009	0.23343748	-0.50785553	-0.42123006
H	3.772214255045036	11.090608758581732	4.175544754215599	-0.35730814	0.42901113	-0.19108297
H	7.144950247469634	11.915093507169763	1.4658212375129567	0.04704639	-1.14640066	0.23917406
H	5.022174204823176	9.20130883539137	1.7283646743002994	-1.09905341	-0.10918878	0.26876618
H	7.819534271449001	10.230133489872282	2.028161287641615	-0.90151034	-1.72552342	-0.263641
H	8.01167419315153	11.687983387636583	2.968481235982462	0.30318059	-0.09590027	0.03139243
H	11.236784262321118	10.85873342302139	1.523761264403676	0.02881649	-0.03856815	-0.31451258
H	10.360114190982356	11.364653486043556	2.9613912835044682	-0.22182006	-0.91912361	-0.16740322
H	9.951704192425495	9.697453448486002	2.0503813040608327	0.26690744	0.79358367	0.30613563
H	13.278049788318015	11.559548755614301	2.814534752993299	-0.5849508	0.1682077	0.00023403
H	3.343664250380554	1.1681487650637028	6.076257733119221	-0.70502958	0.34415755	0.18129539
H	0.16859430035287842	3.757638843663504	4.789514729962455	-0.11805872	0.90958925	-0.69713403
H	6.525613245999448	0.65421877563971	4.80638470570949	-0.15062449	-0.06550566	0.89933176
H	8.273804303767603	1.1650588028194864	7.168700683011957	-0.58366816	0.67791832	-0.43076746
H	5.846936269596322	2.8288188525996665	6.148396676066926	-0.00180929	0.97407224	-0.86844072
H	6.437251242089068	2.2859688588240448	7.664434680690652	-0.64663685	0.10597312	-0.37650727
H	10.638754308215033	0.7517287833960287	4.405124790175976	-0.1448046	-0.46182841	0.40709439
H	12.572734308337303	0.8876988335221798	6.757843726056495	-0.52953793	-0.5111058	-0.15825801
H	11.924154270887058	1.7830687529394642	8.036274785410084	0.0124552	0.46412705	0.3663639
H	9.914794266820444	2.5599688461801273	5.436759677358169	-0.90318309	0.13348339	-0.14460185
H	9.039994244343063	0.40178878279312363	8.4288247122133	0.37007712	-1.14052128	0.61365778
H	2.4147742500012135	4.702308806717722	4.946164749939205	-0.37141011	-0.1586744	-0.65311565
H	1.003254263704693	6.616131834573644	6.528085725067342	-0.3993276	-0.06804607	-0.15860653
H	6.5414842776023745	8.304108782472145	4.572514762000571	0.34795801	-0.1072306	-0.13957251
H	4.505764190149122	8.14838887060892	5.738655697144283	0.00150605	-0.4158508	-0.01912385
H	5.72946429321296	6.708203550888477	7.542064712306431	-0.07049132	0.7799415	-0.1942288
H	7.165033245658489	7.555724848334516	7.908724688068838	0.06920778	0.28914465	-0.36805364
H	8.237404207274944	5.189078788596849	5.710915728337723	0.46668397	0.0665886	0.29180309
H	8.917184192343328	6.3389978028103355	7.250331710261521	1.35088585	0.17828056	0.49276061
H	12.326894278054056	5.826400805360361	8.570614784308821	0.83631605	-0.38644567	-0.24792674
H	13.397649700095762	8.673058854004825	5.759438791179827	0.76385971	-0.08193285	-0.5847524
H	12.889599721092194	5.234478810898543	5.3271746743942945	0.95144688	0.15998825	-0.05271335
H	2.8421142548353555	10.257468773360818	8.632614737434636	-0.46411524	-0.08995521	0.99957927
H	1.6671443045904648	11.536468782536014	8.68784475828257	-0.29125437	0.74237605	-0.69006565
H	3.9981442021537013	12.91270338464012	5.338454726340598	-0.28822318	-0.20414549	-0.21718704
H	1.005244272357225	13.135518848787704	4.696864789362224	-1.40434736	1.36603559	-0.53367763
H	2.6468143112470064	10.138148753586554	4.868494764795244	-0.83477138	-1.75441191	1.31339871
H	5.269514272855233	10.912093499665865	7.535064798515102	-0.20466653	-0.27023235	0.11265135
H	8.677164238278737	10.744878801929149	5.530659729870475	1.18585743	0.97108079	0.67114995
H	0.4918987710415779	3.131368817315182	12.120414694119207	1.7268257	1.21247427	-0.22446045
H	3.0651442280288834	0.2823341479359929	10.449194748984594	-0.27126971	-0.11273453	0.43868355
H	1.974164233630389	0.8090241471061504	11.838794673653853	1.23688008	-0.62171988	-0.58126505
H	5.178894242020199	3.295878844071247	12.125818203512942	-0.6013064	0.19383026	0.79472252
H	8.669714302960712	4.215948854748866	9.129204762744328	-1.01280007	-1.12974842	-1.00778117
H	6.2652542984709685	4.227998812699196	12.980238208279703	0.8542596	0.0572744	0.48295136
H	4.8574742748073545	1.5114588083498288	8.960688251164138	-0.50675134	-0.16781139	0.42333817
H	11.489094286114947	1.009078871988772	9.898094748277225	-0.95864669	2.47784024	-0.13660718
H	1.04832429199498	5.8664038550241075	12.320118256776974	1.29264803	0.11565478	0.25660616
H	4.3431842252262465	6.026212880963605	11.012658170352015	1.02864215	-0.1471319	0.6017223
H	13.204334226475893	7.104680762010202	9.577334699483966	-0.31728543	-0.64840823	-0.23490755
H	11.24742420947275	5.0797788418576895	10.761454723287729	-0.32272647	-0.65829871	0.70414428
H	10.12072429600102	6.182079777233048	11.821244787003113	1.13262231	-0.1407195	-1.32136351
H	3.217544226756059	9.19417884159865	10.602994688070241	0.16180721	0.44366423	0.29079601
H	0.7265543069680896	9.16018886214663	9.93767467235875	-0.26900135	0.08533418	-0.19407482
H	0.24815425458753934	9.99552887627313	11.433174746936873	-0.53782865	-0.45535569	0.87916361
H	0.9374942785074867	11.79964877008403	12.145394752742863	0.90995163	0.19920563	-0.02285671
H	0.7569142658684607	12.61252885636241	10.666344693409897	-0.35045499	-0.09950538	-0.75770176
H	2.5880242871133654	9.56460875792302	12.258914789570005	0.21901642	0.94071613	-1.11754984
H	3.712384309208375	10.857438854902892	11.443044676871043	-0.34664126	-1.51218701	0.09049801
H	3.3796842040215256	11.807458813484029	9.316094711308716	-1.4528758	-0.86713367	0.20326939
H	7.839104198368944	12.713483457495224	12.186834728226776	0.14939924	-0.56674675	-0.04476151
H	7.482660295015306	11.496573503891685	10.160174789477772	-1.25271726	0.93041894	-0.54045572
H	6.995869271387497	11.181723431399325	12.639164798071363	0.50093689	0.17945735	-0.42460308
H	11.13219418432131	8.828468874841516	9.581254682892279	-0.22726723	-0.0506955	-0.09371301
H	9.142504208757119	10.013333464530252	13.088634753388206	0.13106725	-0.80334618	-0.50988931
H	10.103164235942279	11.419933439578546	12.477344682774225	0.12501199	-0.08912819	0.153923
H	13.341889741407527	10.855748863202761	9.905524788228606	1.03147068	-1.43132142	0.38835882
C	4.356064232351832	1.430578829486358	4.232094726367462	1.34568237	-0.50357275	-0.8475575
C	4.951904244820133	3.1735988715365098	1.1335147173163704	3.37553435	-1.03721953	-3.86268322
C	0.3402641914322651	4.690728883054776	2.138794673612541	1.84596736	-1.14622038	1.06402685
C	4.523574301529283	6.2716527586421895	0.8393847322874487	-0.48921925	0.47517448	-1.63133753
C	5.914324222634928	6.93409081806089	0.9797047445940865	-3.40524724	1.55330761	0.43043667
C	12.880739717868723	6.685027912937028	3.1062847858161833	-0.56428357	-0.5912435	-0.77324861
C	11.701839733565082	4.596948752643331	3.236694733642101	-1.46701274	-0.04528006	-0.16866073
C	3.2370643055195445	9.713688843328494	2.6870247901986017	-0.88789211	-0.14224605	0.84094338
C	2.0135442772322882	12.485528802671892	2.375754713362648	1.12342195	-0.46091527	-0.2832736
C	1.730254232104098	11.57132882545617	3.6530547442284624	-1.38916602	1.15002555	-0.44402432
C	2.8145443067082345	10.578018866913258	3.940404763342866	3.13765195	1.5573069	-2.31494732
C	0.3970442136148488	10.825348882470895	3.3071847276214026	-0.74649412	0.68558385	0.96891561
C	7.914204296133936	11.268443441536135	1.9600313106166103	0.08392988	2.81346108	-0.64035662
C	9.511644261943824	12.981613411389409	1.3330213038443652	-0.39376152	1.80395276	-0.99853016
C	10.266554199635133	10.77470347753659	2.020971262840318	-0.07528853	0.40532603	-0.32913556
C	4.452604305898149	2.914068755497214	7.797384722844198	-0.00390217	-1.57978236	1.05298614
C	4.195984240283736	0.8155588343154084	5.525633670044446	0.42105602	-1.70189387	1.63628724
C	5.439334243461619	0.813698830213458	6.451197967516478	-0.64323749	-0.65691893	0.06805027
C	5.528104218733796	2.2580687972947873	6.987856792650689	2.431527	-0.1049991	0.98989799
C	9.317184307073243	2.430568880582189	8.710044707428514	-1.73084072	-1.43213238	-1.73697917
C	9.16624422440797	1.2306188483570724	7.768154758997013	0.57633118	0.77458111	0.56954339
C	11.739434294554767	0.8657388105614505	7.492154763242303	0.46933635	0.72852166	-0.48600498
C	10.376244189837125	1.108398880199447	6.812203724990754	-0.77339989	-1.13563361	0.5924779
C	1.5924642011843566	5.4300088636166395	4.920554684551961	-0.57396987	0.16125548	1.24629758
C	0.17688422438867182	4.880138752484459	4.62241467742806	-0.83667941	-1.18521722	1.14108521
C	5.802310281659091	5.924124776092963	5.21935479934936	-1.01498898	0.90417615	-0.82400701
C	7.063223181782669	6.751604611583328	5.882045738218835	-2.98983261	1.15340027	-1.07945171
C	6.410190312535209	7.4886868002448885	7.102397752005666	1.24194893	-2.85048011	1.33471368
C	7.486908195502636	7.769782831548745	4.809114779025552	-0.24401289	0.78456365	-1.82742986
C	5.750704200919178	8.762328786991839	7.021016773542822	-0.60421703	2.96842746	1.37757849
C	12.39297429111752	7.8668988631974415	7.788594729063871	0.01816938	-0.32190573	-0.02240555
C	8.486354276197698	8.863408792009276	5.197174785455156	1.92276915	0.60930646	1.16658499
C	5.3309642162318545	12.88544350138861	7.601064740099257	-2.38440519	1.19297772	-1.69093191
C	11.882294247728906	12.894333491988093	8.434794726012434	-0.12309111	1.43030945	2.34324768
C	9.96757427839944	13.02245349579617	5.9803147793789675	0.27700463	-0.41645477	0.37449405
C	13.245859767153313	10.279758820395669	4.587504751093478	0.6543268	0.42573642	0.05254953
C	5.230034262760708	3.9425787817639217	13.043628216144372	-0.06227966	-0.69475513	0.01489039
C	2.926524205040636	4.887898792236862	12.567038265147918	0.77645014	0.95435004	-0.57376919
C	4.4674841832356735	5.253838775772931	12.820088165396518	-1.23102986	-1.15660637	1.55416558
C	11.075994237975667	6.071816865512065	11.186034790689115	0.387727	-0.21458255	0.03851649
C	11.035704229111161	6.903436871434667	9.831864693158089	0.71277934	1.27941592	1.66406034
C	12.291114243995388	6.364075816375642	12.077714705108116	-0.45776354	-1.30587623	-2.90295736
C	9.826514262451989	6.374636849924587	9.067874686885581	-0.50996329	-0.39791644	-0.4304853
C	12.322354178210578	6.843120629467134	8.94335474780877	-0.5098987	0.40499693	0.41803353
C	2.6162842742193155	13.098978814896936	11.40477467045681	-1.09213598	1.22881573	1.69959707
C	0.5654542514056436	10.127428761073677	10.423924771070736	-0.35784032	0.51977263	-1.1792067
C	1.5162042219251928	12.084768779133741	11.233634758960596	-0.13689333	0.6115851	0.54142045
C	2.939254262427283	10.035778786049736	11.27175478891141	0.38647289	-0.32306297	1.39605654
C	2.4691042825753304	11.105988827873276	9.257364799575887	1.64965342	0.94349347	-2.11821042
C	7.919254225089808	11.592603403679222	12.143214681140362	-0.15059424	0.20269084	0.73590079
C	9.192154188398082	11.084193422183969	12.984734729730048	-1.62703748	0.42998966	-1.10696847
N	13.038229767238677	5.209788851956274	3.271584724724943	1.16257151	0.88400633	-0.08376416
N	9.205054188822192	11.540633428437863	1.1995413272505344	0.14616335	0.18527743	1.5080562
N	1.8848942908052257	10.81557882767376	10.550614748113412	-0.38599187	-0.66918087	0.27627499
Cl	8.772214270725506	3.776644177405613	4.279264700500425	-0.48290452	0.33492826	0.01192043
Cl	12.890034305155407	1.4305842246167562	3.9984647978086274	-0.11080367	-0.28760921	0.01654597
Cl	9.43275881135468	7.644044185663057	0.9776812505317396	0.23000769	-0.3532593	-0.03565822
Cl	0.6177043054838656	3.641344176157221	8.787894769945805	-0.19485415	-0.24293433	-0.02650512
Cl	13.062674276482833	2.3223787516425234	12.179398219220195	-1.58166606	-1.24026434	0.23763669
Cl	3.169984222260256	6.71315864918795	9.08034478094567	0.27970999	0.79035076	0.56828713
O	3.2853442038521106	1.8859987613293334	3.66101471862013	0.82431225	0.81569403	-0.57071165
O	4.115864203510659	3.5259687862353903	1.9072147754445279	-3.30286362	0.73113812	3.13704179
O	1.3527142917397108	0.458074204410393	2.1343747246523197	-0.63491399	-0.83061871	1.00740927
O	5.5131242398137905	1.3627887528546259	3.6777847540653967	-1.01356989	0.25163373	0.25724331
O	5.721174234087313	2.104128752108816	1.2993346890503132	0.39338737	-0.20107903	-0.01645637
O	6.881935028124255	6.129947816491192	0.805824726145174	2.50397967	-1.16161655	-0.44167122
O	5.986942179405989	8.163688802475768	1.225094755399393	0.85714807	-0.43355303	-0.16089883
O	2.4183142796488677	8.956908770405649	2.1696147048236516	0.14785357	-0.47372879	-0.4155269
O	2.907744283592148	12.088908817977432	1.5967147802204797	-0.90231201	0.47015427	0.39620238
O	4.483434242403717	9.907968804856742	2.2921547169445673	0.89867806	0.02820563	0.47161181
O	3.889644218483524	3.9716887999764077	7.573674760381186	-0.47523012	1.07677006	-1.11048048
O	8.374604300798337	3.3335688302681326	8.5391947152225	0.64937455	2.46062392	1.13044563
O	6.602735233622728	0.34407878357361044	5.770887698669011	0.21474257	0.7615205	-0.42832589
O	5.509984211226495	0.0356587853961981	8.768174713307667	1.17711842	-0.00146355	1.47630458
O	10.561384295618156	2.294968857448233	6.122750700822243	1.10505007	0.01746279	-0.14336123
O	1.6639243028090682	5.892921842051575	6.337257838165921	0.01095649	0.09954037	-1.08390107
O	5.950842252570916	4.809028828418124	4.46945479136771	0.18946166	1.1068252	0.54714206
O	4.653944251988932	6.4176977542272535	5.323284791895895	1.54524649	-0.62263705	-0.05220549
O	8.00340426241426	5.926126764236372	6.384475868137515	0.67520983	-2.19172141	-0.46223959
O	9.697304193486511	8.692128797723168	5.4454947501800595	-1.29036513	-0.44028113	-0.61477418
O	13.116244293533281	7.5258008233746185	6.74276277412618	-1.12540092	1.22834084	1.22696714
O	9.8247942984194	6.65699876304385	7.762974762061523	-0.54772665	-0.2721196	1.29435575
O	0.3852942331255017	9.143448825229076	4.919064689511337	-1.88387425	0.44047416	1.08702356
O	1.557274239611891	12.380078873620377	4.829504712930758	1.71097703	-1.815545	0.38767504
O	4.742954281933268	8.991628803112542	6.211940753062591	-0.5060316	-0.3533931	-0.70641079
O	7.971174254652509	10.11858877412179	5.340614730669824	-1.96058982	-2.11172332	-1.19217946
O	4.7394742321811885	11.778953444641791	7.211937735626207	1.08550372	-0.47493072	-0.37020785
O	6.053517296787661	9.715438839405738	7.804914703097347	-0.03404409	-1.01176572	-0.64515917
O	12.122644226309017	11.730213441857911	8.180934741626915	0.0041519	-0.23203004	0.10144095
O	11.816564252479488	8.988958871508116	7.990934761769597	0.7161134	-0.69318814	-0.91344071
O	9.535254186064407	11.939773465382512	6.401188342193653	0.33734907	0.2842241	1.13288173
O	10.068694303296429	13.123813389651588	4.698934755004785	0.72279403	1.22633415	-2.65406509
O	12.35252973945901	10.863098873044894	5.253414771043544	0.91269453	-1.14270275	-0.88788768
O	2.646124272268177	3.7457987694445225	12.197018209305861	-0.86683839	0.26652672	0.30340213
O	4.154014253983695	2.240898860596471	8.913644753661416	0.48973322	0.01170958	-0.11143859
O	10.156394231827944	2.432608766226932	9.574844773339525	1.73974173	0.41797852	1.54834319
O	11.829354289761708	0.1406788146669503	9.785214751850308	1.01493942	-3.63685877	-1.50262805
O	2.136834303486483	5.968503802863916	12.643338262826298	-0.25460279	-0.99718654	0.05771499
O	5.064574182131365	5.728498795324614	11.658968141238983	-0.97462781	1.41951389	-1.94242448
O	8.973434257025138	5.692778821254387	9.688704765618517	0.12934723	0.12087194	-1.02585987
O	13.393664279196502	5.854282839258776	11.761684723860089	-0.66223401	0.16160991	-0.01032151
O	10.829514287049758	8.234618844999309	10.317864743083353	-0.23784966	0.50623073	-0.36160405
O	12.152694289082248	7.144228778480842	13.076324801449708	0.57657889	0.80859136	1.85901041
O	3.6532742572084764	12.696278781420684	12.273304740787701	0.50913989	-0.02248688	0.28979695
O	8.053844247526678	11.118963458538456	10.808364747018867	1.80993046	-1.06401796	1.41679229
197
Lattice="13.564306 0.000000 0.000000 0.000000 13.212741 0.000000 0.000000 0.000000 13.256217" Properties=species:S:1:pos:R:3:REF_forces:R:3 REF_energy=-1148.83529643 REF_stress="-0.0033585246533638594 0.0019484381244068147 -0.0017178817080888964 0.001948479543061374 -0.0004678632993818805 -0.001397070772935348 -0.0017173684438274385 -0.0013975235507318671 7.874485769053608e-05" pbc="T T T"
Li	11.017254345346206	10.337831959069218	7.249559642774285	0.27296987	-0.21381277	0.28933207
Co	2.2827543651984703	4.551432005428089	7.926466631853543	0.44545063	-0.63132597	-0.183002
H	3.9972143746929	3.5646619617752373	1.7168565624703995	0.05013718	0.70053906	-0.17187006
H	1.124834291034964	3.5463620512215672	2.697356641574948	0.89533587	-0.13853962	0.22426039
H	12.977420086930952	3.310932014681573	2.4517266262061006	-0.29115893	-0.24215867	0.35368908
H	5.165834380105961	1.8533219813150679	0.985466520863542	0.26381718	0.9162858	0.03710246
H	8.670974402999649	0.8949720150650854	1.4643893879769392	0.73529087	-0.2566715	-0.30159063
H	6.743397855312502	12.710213035649476	1.0404193737272924	0.49648551	0.13956593	-0.38931934
H	7.833764296113188	12.187263052411662	2.9019794770945357	0.36071833	-0.61972687	0.05901376
H	10.201044360870464	0.1746619980868021	2.0112494401001353	-0.00408614	-0.11564908	-0.71557148
H	3.943824318035023	8.063981991768015	0.499546624646582	0.35483057	0.06530736	-0.1503636
H	4.331754372398217	6.674512970593103	1.3756465701345204	0.34821354	-0.32386226	-0.02298384
H	0.534944339900852	6.8732288958160215	3.024816622661617	-0.76973143	0.92607042	-1.56679723
H	0.18274429441545922	4.601441965896119	1.6411166354780533	0.2464904	0.94737995	-0.72341665
H	7.91645433818432	7.292696030826463	1.0537494280168735	-0.85729126	0.03299693	-0.38420071
H	7.393913335040317	8.442872006372287	4.225496636058215	0.26484378	-0.26529549	-0.15007691
H	7.781620392218132	4.8932619991556425	4.281486522790392	0.05139957	0.02575583	-0.24581147
H	11.873930044741808	5.785681973294646	2.613206572729782	0.00568541	-0.23362882	0.54781926
H	11.391790054779571	4.632341942659155	3.877296640413867	-1.07264354	-1.04473915	0.33528335
H	11.358674294535476	7.253683034701055	0.930189420928058	-1.28010527	0.35516277	0.12569945
H	3.058864328435485	11.839181978784868	3.9857265314849455	1.27657346	0.80990664	-0.07186282
H	8.292034363511988	10.487812953331572	2.369549480160858	-0.6999466	-0.6186622	-0.23211164
H	5.097184343915027	9.65160196136026	2.086006551152239	-0.76284533	0.39976916	0.23912215
H	4.875534365375964	12.90253306933168	3.5310966102524493	-0.37954928	0.18783372	0.44165092
H	0.5703943815094185	0.47824097446299446	2.4497366028860412	0.04823457	-0.03063385	-0.56222164
H	0.1323642928310304	9.533232053582102	3.1390365642638396	0.70379442	0.19081576	-0.70618011
H	9.534414350351753	11.518803002214462	2.9856894395299896	-0.20032505	0.3048632	-0.28838113
H	11.751844375825913	11.32987296149319	0.3727994252659876	-0.56692264	-0.63524924	-0.17593421
H	10.52608432580668	9.448083072652798	2.1925194606598097	0.75262381	0.92438747	-0.51264653
H	12.582329978171511	10.901651989181394	3.3914365297362985	0.95862216	0.02886208	-0.67699526
H	3.519594282669353	0.5285220603765494	4.43387654864529	-0.1395618	0.24085648	-0.23219561
H	1.1297843131067664	3.702611962583524	4.866746521971818	-0.34747993	-0.02538656	0.05376522
H	12.979890011352223	3.7012620168345327	6.88967362889254	0.81491044	0.96724172	-0.5157256
H	7.468708272990406	1.4768220194320958	4.728736575367744	0.9884339	0.68219546	0.62746858
H	5.400794333593524	1.8368520353912827	8.080883798436549	0.24585349	0.41429886	-0.51749702
H	8.057734313495757	1.5841820143814407	7.307955532921002	0.77844033	0.10717124	0.53413488
H	6.5242293308545385	2.604012053697644	6.155976607813328	-0.27288971	0.12905749	-0.55649035
H	5.342394300632738	3.2254720058288933	4.806426624466498	0.71398025	-1.05484645	0.9956151
H	8.355594393996503	0.309552060204583	8.435196633499887	0.35991062	0.33192681	0.48145745
H	12.100394402295874	0.014372026906217401	7.742246572727082	-0.29435248	0.69847196	-0.35638025
H	10.257594358179555	0.6336419672150589	4.612576586384155	-0.08537815	-0.2885759	0.67613795
H	11.656774327603701	1.411172005303119	8.832866578028437	-0.10018691	-1.17576624	-0.49557571
H	12.913270009149358	3.1891820234982373	4.809986581584816	1.1042317	0.96730191	-0.32948422
H	10.20269432301338	2.5320719820834463	6.08650262954817	-0.21902932	0.08585678	0.09305704
H	1.8393243264288743	5.9004630363596675	3.591326630605424	0.54076752	-0.56938536	-0.13663426
H	0.7183443328528825	6.634088060963368	4.719036603585257	0.04981256	0.00577492	-0.10842681
H	0.3148543921580464	6.260618044848809	7.278771573156749	-0.03375061	-0.53614662	-0.3988265
H	8.810424282188741	7.359947957675492	4.651736644934339	0.39604407	-0.91616161	-1.04390662
H	4.604034342675391	7.862212073588047	4.7762866263206645	-0.04928539	0.15868805	0.35349208
H	5.065994308148321	6.791671798530285	6.88580360885485	1.67793539	0.3929857	-0.25204629
H	6.449498280784203	7.582022951984809	7.65912664451742	0.45408574	0.41300077	0.8994467
H	8.125384389071963	5.2191820029234135	6.182438535945948	0.12648115	0.14270367	-0.46769887
H	11.793950015302483	6.299913000867369	4.271126523955508	0.08318872	0.9172312	1.12417686
H	8.968484388770792	6.31312706315147	8.008916590847939	0.02862813	0.19471023	-0.15802831
H	12.37822000330726	5.118712056028553	6.124865591760523	-0.24912546	1.04744217	0.4922986
H	13.402600030623391	8.614861991844636	6.451622463089026	-0.5544324	-0.42859364	0.45370861
H	1.4801942771715695	11.510631978919056	8.741106645160402	0.01588456	-1.51413327	-0.51068095
H	1.2658843513651257	9.66398203543181	9.16757651684208	0.52241118	0.77843637	-0.64811238
H	2.624124397742838	10.282282028423106	7.9894365797313185	-0.44031714	-0.32516165	-0.14036509
H	2.506534346658463	10.62089194503911	4.928196644552199	-0.13573771	-1.03486224	0.89790513
H	5.552484370942134	11.243022972286258	6.4282048252272	-0.4823792	0.11605453	0.07382614
H	8.576104292643162	10.802501995113431	6.388555214577297	-0.3532213	-0.36359407	-0.16542258
H	0.09179440404354801	12.955451946860473	4.475636549067065	-0.53118745	-0.03513191	-0.11182839
H	4.944104372163387	4.6220620337711456	11.382353696362218	-0.13004234	0.5298774	-0.06498689
H	7.79970635919656	12.900762958418571	12.730316645390651	-0.68443455	0.00352397	0.47009674
H	8.613354317615462	4.244931956269407	9.434596631658133	0.11746999	0.02612335	0.13910027
H	1.1365187195907727	3.5674420546111514	12.630116611619016	0.18319008	-0.38052869	-0.11959147
H	10.222654334464558	0.8415720616361198	10.432116633098747	-0.00829548	-0.92095535	0.33001328
H	9.907074387595687	0.4894219922878867	0.256119394883212	0.82443976	0.35289472	-1.76695172
H	1.3023643307039745	6.721126331729693	12.580613787316256	-0.25170381	-0.3923552	-0.01605167
H	4.647384371555046	7.026874047415266	10.509583712624872	0.41064445	-0.07415705	0.77995009
H	6.305695344616286	5.229992006980745	12.20320371715985	0.29547933	0.11943469	0.47684759
H	13.250944310968153	6.339397031209782	10.232656563914293	0.83600131	0.15464521	0.53653508
H	10.223874308117416	6.282148999089065	12.463036576156092	0.32236989	-0.25838503	-0.40151042
H	11.161274310405005	4.866102020862896	11.745576565227477	-0.09004899	0.96307517	0.43905705
H	12.297934370060963	5.524572049709846	9.074696566186198	-0.12991985	-0.05993803	-0.15760433
H	1.535224394029216	10.107071965839209	11.542846584956166	0.46222222	1.06976371	0.03078179
H	3.0305843788093667	8.724151971873313	10.503486515542129	-0.05906673	0.05371943	0.40984854
H	3.1225842820839667	12.87296203005943	9.63382657291269	-0.22414523	-0.00420375	-0.55060355
H	2.6046843061283753	11.555611981011989	12.066226562434712	0.2858076	-0.58352582	-0.2942589
H	4.443974314863879	12.261551952995207	10.542356528060854	-0.16511852	-0.74801426	0.06478232
H	1.1206943292983713	13.132032038559696	10.543456528960789	0.69322118	0.14779625	-0.07346418
H	0.167314354132232	11.720571995502558	10.229526638480646	-0.74586169	-0.24697848	0.20825665
H	4.387694382880878	11.776082023670822	8.802156562544722	-0.5946019	0.37158826	0.60187031
H	0.6428342847073448	12.05608207095021	13.060016529490847	0.4116718	-0.455133	-0.94230391
H	4.258364289587406	9.773492007598302	11.322696609714898	0.02196349	-0.09989088	-0.27575944
H	4.409344371176726	9.173691966059566	9.561716595865267	-0.14154347	0.89883715	0.3720898
H	9.045974282973384	10.08634302497826	0.4151494599135544	-1.12618878	-0.20612716	-0.32212606
H	7.278573330982141	11.320253029018629	0.0387594556676092	-0.97257873	-0.76824667	-0.38228598
H	9.604344314426653	11.29714302010027	12.402536526659569	-0.34745851	-0.02393766	0.70198731
H	11.34454435730862	8.566472045551844	10.268416535325109	-0.20897762	0.23685293	0.22983662
H	11.088634333698298	9.627083077868003	13.18697662371903	0.08855473	1.30143196	0.54800752
C	4.608964289574787	1.6589419491819921	2.8867065916179855	-1.35699886	1.46849048	-1.05954633
C	0.1979543573036136	4.056792037460534	2.5546866043904477	-1.27062494	0.22397976	0.53349026
C	4.512784274218781	0.6356920561101705	3.9858266159245033	0.98552774	0.02939571	0.42653457
C	9.486844330331992	0.1805219808521472	1.1573494163657057	-1.24164317	0.54680965	3.08661571
C	0.8036943352678624	6.1562660625178	3.7339965352277527	0.23220092	-0.56576451	2.24640467
C	4.682314357683841	7.246676978780503	0.5054166101672016	-0.7205645	0.33562889	-0.73066003
C	6.0565133522662995	7.776791967213218	0.792126582017516	-2.62918801	2.16545618	1.88677306
C	12.00711999685958	5.459342068617577	3.6689065205395788	1.55614198	-0.19617632	-2.30644291
C	3.2625243752803335	9.971061991793421	2.962906641907955	-0.31368662	-0.53696094	-0.67396419
C	1.1465443692049744	11.504552004015896	3.5336366340224767	0.45097415	-0.12162754	-1.65407195
C	1.117514313474752	11.913511970992955	1.9969966205340466	-1.12120691	0.32884601	-1.44811152
C	2.5401542921446842	10.91980206725201	3.906776611507305	-0.34227106	1.1407766	-0.93555429
C	8.58750427770886	11.516352963648977	2.4249094314535924	-0.28259192	1.34886536	0.91661426
C	0.03314438092908	10.488232061476408	3.6480165781658207	-2.9847537	-0.37559724	2.24564632
C	10.949854395566742	10.569513012475035	0.5939894833056292	2.05872011	0.01235015	-0.06383639
C	4.550024397247936	2.886722034158182	6.689724537857054	0.85760674	-0.37919066	0.64298456
C	0.0853243658772448	4.07219201561733	4.9234465442572555	0.03072947	-2.02414765	0.32217338
C	13.324349992730493	4.606641972248015	6.264014645105156	-0.93362044	-1.78586552	1.03230414
C	5.668314317721471	0.026102034120075203	6.316861615310868	-1.10445577	-0.34630933	-2.43252573
C	5.53727430805398	2.4724220057745208	5.657389600726958	-0.37896794	0.68836822	-1.45839894
C	5.56578430830443	1.0319619781115854	5.04382651741156	0.48189623	1.04616065	1.78483112
C	8.790904296813824	1.2725219934761223	8.103876574538397	-0.79270004	-0.67328475	-1.06375039
C	9.82862427619401	12.996872965034951	6.396911536188446	-0.26370973	1.9865755	1.14240218
C	11.260284382498085	0.4689719723896592	8.309446566774067	2.26680842	0.90660687	1.23136722
C	10.173714319571118	1.0101519707811988	7.4159735533249185	-0.33946484	-0.74275127	-1.07460836
C	6.231162333408879	6.152275946860191	4.600666538076753	-0.21067955	-0.24970694	-0.2733305
C	7.96835435586325	7.908821999411974	4.998126636687661	-0.58263338	0.67617545	1.53705275
C	6.986779343624549	6.90318165117605	5.7581506376088045	0.78049339	-0.67852704	-0.97048431
C	5.993529397844015	7.480409970865173	6.7031795982744535	-3.02684479	0.09925917	-0.21442878
C	12.613164357843289	7.625056981581788	8.569456528831568	-1.31749644	-1.14200726	0.73284132