197
Lattice="14.883458 0.000000 0.000000 0.000000 14.497703 0.000000 0.000000 0.000000 14.545407" Properties=species:S:1:pos:R:3:REF_forces:R:3 energy=-1149.05547279 REF_stress="0.006382722689396018 0.0012457842438141262 -0.0009126810122031709 0.001245855384535143 0.004707682693705675 0.0020227689681189985 -0.0009126043976786509 0.0020233884191752155 0.0029941300276898914" pbc="T T T"
Li	14.70438057053188	8.948903096271247	6.701964736090771	0.07194627	0.27326952	-0.15801082
Co	3.173120510520312	1.5292230860833433	4.109921652014681	0.63531648	0.02332876	-1.21542115
H	5.120560568214669	13.601496113475944	0.6350143768068907	-1.24845607	0.18790304	0.08648125
H	2.3477305128455774	4.6657530172305846	3.113881682494042	-0.07921989	0.32660509	-0.05488224
H	0.7211205091801656	4.737753105063482	2.287461671931995	1.02383489	-0.77424955	0.76488965
H	7.058058475938307	1.5946230945845188	14.220701659489142	-0.7069701	-1.20794417	-0.46721034
H	7.900399541643959	2.1512031091194306	3.377171737650255	0.20790404	-0.04465762	-0.37523627
H	14.68938861208277	2.0493031034107476	3.0774916914276287	-0.02297311	0.29797332	-0.1258423
H	13.816278527067285	2.7678430481993472	4.534941655355702	1.36368294	-1.32936199	-0.68109054
H	1.8856604605507021	7.973569975914465	0.5337716506243004	0.16317245	-0.38674306	-0.29355217
H	2.6530104787489117	7.154214018677222	1.9161517489372883	-0.29886428	-0.07771757	0.31781156
H	0.3880904845958316	6.439643110063572	3.889911747396051	-0.29028158	-0.9636961	0.81897869
H	4.44180046430047	9.070203058392782	2.6499816597989367	0.12131674	-0.16810349	-0.34624499
H	5.999150593645902	8.061610032492077	0.49951168901314974	-0.49057583	-0.21561048	0.40634735
H	8.142313482611154	8.959443071394707	3.6419016426820234	0.66874598	0.41499123	-0.30217223
H	8.862850560236152	8.945192989073483	1.0079942580217471	-0.46148312	0.03167903	1.45665992
H	0.47047057368181205	9.388033013740172	1.9440117313056389	-0.18743425	-0.4176433	0.37103049
H	1.1832704856447158	10.41881303449575	3.1183916315031843	-0.19207121	0.31680363	0.96629448
H	3.9821105746153513	11.87152608726896	2.8606317402290458	0.29336804	0.45275251	0.86851675
H	8.486330475920616	0.0854230761928362	0.7089143553072074	-0.05861745	-0.97990382	-1.41205769
H	6.432570584552099	0.10342298941828751	1.4760443763476607	-0.61319493	-0.32324167	-0.40988931
H	6.529047540920666	12.845766080812753	1.4211443362244063	-0.08805474	0.24209714	-0.75004529
H	8.039320548312675	14.185246128394795	4.081269090398739	-0.95900886	0.2616012	0.35242131
H	7.995408542546041	11.17607300976603	4.643671629982	0.39435536	0.05703143	-0.07807767
H	9.582340586588037	11.891233105033256	4.871591618036584	0.54839805	0.58760252	-0.17898027
H	5.353760542168606	2.765473108675225	8.92606166808054	0.12434496	-0.12143009	0.22880831
H	6.30935058427352	3.862853112816738	10.020101756118775	-0.33148971	0.17934465	-0.19671736
H	5.420120523524072	1.7325230717211353	5.758551650429602	-0.61724214	0.87429571	0.56151397
H	7.153337462769234	2.1054930110929075	5.503601640951201	-0.02431405	-0.29565713	0.15583763
H	7.11206756847386	0.6291230413485304	8.4080816753297	0.82050488	-0.16600746	1.0562985
H	14.662058564587658	14.32987608428282	6.231507643753269	0.04108547	0.24615327	-0.73495412
H	11.238338573491749	2.2424731089684635	7.016572152080933	1.55957048	-0.29551632	1.14402171
H	13.863228544289045	2.278923089100311	9.676201635134316	-0.02041053	-0.21673263	0.06642479
H	12.977278500022454	2.803173080767492	7.514446755494588	-0.35281243	-0.30137979	0.15613106
H	12.640638492690517	1.087703077283	6.946680742397714	-0.03851357	0.98166843	0.18202869
H	14.13387857303239	0.7185729995516449	8.832921751981555	-0.33416107	-0.22012354	0.36965009
H	14.558438590201956	5.0631430326641835	5.342821653321726	0.56043576	-0.57276575	0.39223823
H	3.6579205799338754	4.100182977009563	7.872286758540233	-0.21580132	-0.04701183	-0.36438913
H	3.3527605747023435	5.686773039288944	8.664061645103974	-0.78809404	-0.04228827	-0.08790327
H	4.239930467189895	8.606862991602773	8.297681742483253	0.1720691	-0.23433604	-0.17930822
H	4.980720508011983	5.750272978823144	6.876331734198636	-0.16074422	0.17571173	-0.81202299
H	6.410460463460777	7.246895079968004	8.219871667573733	-0.60025535	-0.09168901	0.07238729
H	6.197230518166592	4.965033016497289	7.914641675715011	0.05392	0.01865589	-0.05327455
H	7.979180512906706	9.095462986394612	8.3436317025436	-0.12242819	-0.38076117	-0.44511965
H	10.647020571577514	8.758792975927706	5.556741686782685	0.11348503	0.08722845	0.39556382
H	10.637380555805006	9.104703097459025	7.3312146225028565	0.46088411	0.24154978	-0.68247735
H	13.903590547643981	6.79869800903253	8.890731746303251	-0.07647582	-0.22581793	0.47000715
H	4.403130561290102	14.33434616107656	6.086194660504758	0.19387775	-0.64855343	0.1214033
H	1.4459925427938938	12.245953045801276	8.37135175809305	0.90335302	-0.28528838	1.35245351
H	5.230250463292827	12.691966182743272	5.757771725686423	0.19678504	0.22561741	0.8679878
H	9.265550498409466	11.031642977203614	8.790231708620974	0.32467866	-0.30377579	0.09706543
H	8.737180593929608	12.063493073424267	6.948845680830665	-0.11044213	0.44751562	-0.14313177
H	12.019838592917747	13.950726064037843	8.290871728206694	0.47757218	-0.73279858	-0.61986193
H	12.751300575247846	12.096143060599193	6.406351731222871	-0.08421539	-0.3306839	-0.27116904
H	2.7595805033527236	3.1789731167594635	11.042681712288937	0.2144116	-0.73527807	1.88445754
H	1.7953324560367812	0.1492399355165836	12.242951710334713	0.15340639	0.71245171	0.48002544
H	5.275960539625275	2.612823023437812	10.761351715642082	0.08563222	0.20740911	-0.68770096
H	4.509860583067844	4.713413056322712	11.910271625687326	-0.86213949	1.27986258	-0.68621454
H	2.252970512196505	2.575332978086288	0.0548642584211241	-0.43082949	0.84501098	0.39258874
H	2.8205904768811307	2.565533110705571	9.484741747009672	-0.04268137	-0.35294584	-1.03051219
H	9.353690485756927	0.833172993167168	12.95913164207731	-0.63207785	-1.00437377	-0.10567135
H	7.10873754357199	0.84559303042734	12.585141727774682	-0.53243932	0.15318773	-0.23173364
H	5.456110511079756	0.8686930906228224	13.520591639262996	1.30039469	0.44193811	-0.29165701
H	6.8246115854154885	12.865106161711845	12.192731655032757	0.1288282	0.30582492	-1.02100563
H	11.017038519579113	2.1137830876738315	10.75179174664815	-0.26481705	-0.85229145	0.01629321
H	10.787938491811458	4.492673058752805	10.169001636824728	0.2156176	-0.44192175	-0.39440327
H	13.09230857984536	4.689493006040459	11.005281688134751	0.20651345	0.17185542	0.00518064
H	10.209938505820574	2.442673050754521	9.10893162042876	0.64484532	-0.21207896	0.87773207
H	12.173738609427081	4.317952975124453	8.998691687063381	-0.57671835	-0.54041109	0.78381371
H	13.448038556963143	0.7992630106166887	10.552111667002421	-0.24248186	-0.34479269	0.04014372
H	1.9455305100278257	4.148403062372059	9.974271650215158	0.82751871	-0.25619494	-0.8550992
H	3.2416305562242362	5.788273053369374	10.973551754681539	-0.46370234	0.47813559	0.49230455
H	0.4737324323458584	8.20264107856504	10.20817169160177	-0.25093392	-0.18049014	-0.20862637
H	5.041240518101714	5.9793330632193715	10.718631708742317	0.00409418	0.39746744	-0.12578624
H	8.14539956763575	7.865744034067745	11.696911735864187	0.13152141	0.14916734	0.37163622
H	9.838280549577545	7.553719104014622	12.24639169917772	-1.09866921	0.99750536	0.45544041
H	12.511830498090818	7.262109984429867	11.345201749300555	-0.61337635	0.11364933	-0.09246251
H	2.878122483934751	10.026493010809755	11.440851620895307	-0.02690423	-1.18858839	0.73685685
H	0.6656924277550801	10.88316301128301	11.909881663315737	0.40992871	0.52052715	-0.60177085
H	3.622122440152326	11.517583078409533	11.116191728417665	-0.03309847	-0.34245209	-0.66080532
H	2.1605104523183547	11.341693030141817	14.09023910080318	-0.31250274	0.19580393	-0.28824941
H	5.195800467140541	13.145166121061042	13.068021616184678	0.1231209	0.00180928	-0.57006167
H	0.0082225152287784	12.122183110004297	10.80477164754449	0.96947564	-0.26942067	0.23843466
H	8.79907047749734	13.952026073073922	11.356171750084936	-0.60243532	0.74592531	-1.32550577
H	6.372260580055313	11.973206162821766	13.601681703534451	0.05885789	-1.20942381	0.30853661
H	8.789810585243174	11.568833038740806	12.312791629275843	0.18592174	0.64964199	-0.19227882
H	10.309040457683656	14.103066188383192	13.584441613995084	1.34650382	-0.68636476	0.73770223
H	8.44365751803581	12.815746121955382	0.21776438462884948	0.61270631	1.01156061	-0.64080889
H	10.989860581025171	10.00530302299638	13.241541635221386	-0.10173407	-0.20672935	0.09845623
H	11.141660541605063	11.049293060853504	11.76667165506478	-0.41831967	-1.29900808	0.48226117
H	10.358538522921863	0.042292989408209795	8.615841728769464	0.48378322	0.54441576	-0.16266234
H	11.419138505558838	14.110556136730578	9.950091655911416	0.25448433	0.62505597	-0.52319162
C	1.9386805472994961	3.0567629888379377	1.9443216939366934	-0.02161733	-2.28635409	0.56959232
C	0.7401805632153504	3.7085730508209163	4.23451164792908	0.97627961	0.33422969	-1.30082352
C	1.456070578736519	4.067813085458335	2.8670216831407607	-1.21321412	2.38490457	0.8538265
C	0.4880004593959045	1.2016529938919673	4.8589016228307	0.35993015	-0.3062031	-0.91248416
C	14.83945851950009	2.40298297895909	4.106061737260903	-1.57930804	0.82415351	0.91232964
C	5.981430497338058	2.111683095381245	3.752881646374386	-0.01636068	1.08573429	-0.33882614
C	4.02788048244912	7.767111085750393	0.46119166784281107	0.2211431	1.5050427	1.16259116
C	2.7241804960737444	8.002755012050882	1.235191630238189	0.01328218	-0.34633268	-0.831844
C	0.8823105922720716	8.329273005929016	3.8721317323351103	0.54382053	1.20405244	-1.5913599
C	2.607400568089073	9.283383083709376	2.0448217316189714	-0.90567112	-0.53858327	0.16704808
C	1.1964505319120378	9.395073098360676	2.776101687114586	0.36606421	-0.17917405	-0.87632036
C	2.7490504567894236	10.549663068573762	1.170841729854793	0.53834135	0.25186807	-0.27404905
C	4.339630585231603	13.4420061568977	4.109551616851188	0.10865064	0.30719255	-1.93781122
C	8.337666459949755	13.872036156091093	14.340921633213297	0.59444441	-0.96877525	1.85483698
C	6.15249054562919	13.726186073511014	0.844474352005986	1.69888574	0.23697145	0.90461949
C	9.083060549681937	10.947783043357942	4.7511316450908225	-1.8057047	-0.19118633	1.60589132
C	9.538040569070297	10.287062983009912	3.4741717139570896	1.73243084	0.8306241	0.21923399
C	1.7614804772285424	3.6777631121221717	5.38001164179349	0.20989013	1.9543202	1.49160253
C	6.273570453476198	1.5566630336988172	5.140181728730276	0.25154493	-0.77842463	-0.74802928
C	13.494708616339171	1.2462429993777568	9.563871672183945	-0.55779783	1.27072169	-1.13156545
C	12.25413860325542	1.9684630411187223	7.5277267124234	-1.21508019	-1.32715573	-1.38102696
C	4.036240520830188	4.851003072567265	8.557871734966698	1.55207156	1.84830839	-0.97014552
C	5.288030577591973	5.579463070695197	7.890953752542598	-0.32677221	0.27146126	2.23401117
C	8.119133538555918	9.050143021558242	6.258033666811717	0.54616876	0.79265119	0.83047893
C	10.633180592780697	9.575413071614836	6.306894744703095	-1.67411083	-0.6213428	0.44092458
C	1.038822506832845	9.965893046824647	9.446171690286642	1.01565636	-0.69801729	-1.66255922
C	4.125222465398971	9.967822981059987	9.629451677668621	-1.00900343	-0.03993558	-0.36456335
C	6.427650559827817	14.486106087344249	5.321201650715105	0.26469479	-0.66586924	-2.04683009
C	5.0842904739786725	13.730826208362	5.447091715140235	-1.41619157	0.20413248	-1.00704281
C	7.1543944859592346	14.31693615938984	6.620221728482477	0.80113537	2.25509893	2.10030091
C	9.1990705563822	10.241093086144016	6.184441614585423	0.53863902	-0.72339827	-0.96973897
C	11.891020477566581	10.362353034605023	6.086445714235965	1.48567111	-0.25360036	-0.67735433
C	2.8443105416286394	3.4793230465142098	10.03931173017826	-0.56974263	0.79792486	0.9663066
C	5.375690573417644	3.2993130409823794	9.884161687925419	-1.02360849	-0.33072983	1.30150947
C	6.596432546031346	0.7833330794384277	13.554291748144475	-1.20301813	1.11236458	0.32785967
C	11.158638548695032	2.4305231057029153	9.721231743632584	-0.21762543	0.16547743	-1.19231262
C	11.666138570642042	3.843802985979447	9.906601615145485	1.0493273	1.06047981	0.01841574
C	4.213320481394759	5.334233118134568	10.991131624937067	1.3937703	-3.07645082	0.44983223
C	8.945810508847371	8.25893102039852	12.352191646943403	-0.65823623	0.23496858	0.50630544
C	8.375003549292641	8.316699003062029	13.816611624629108	-0.23237495	-0.76309099	-0.41364968
C	11.854080478884205	9.043933075416671	11.479501677358872	0.5525101	0.90184407	-0.8596113
C	1.6096424149960704	12.799723115523284	12.109081744518255	-0.38480887	-2.62513354	-1.05513293
C	0.9864324368628842	11.71508311294914	11.21648173041752	-2.28610944	-0.01957767	1.08830725
C	3.1000224900409776	10.664022980226113	10.620101701034233	2.56208792	0.00657071	-0.65941529
C	1.8167125435112412	11.148473007508443	10.04948173355729	-0.6465675	0.99386991	-0.4710059
C	9.029430538822664	9.840512996122493	10.320141655719734	-0.20917345	-1.44062889	0.11374763
C	9.31032053553211	9.733613022572131	11.850431674313073	1.13486116	-1.33773629	0.5513793
C	9.328990494132064	14.219926083956384	13.204851717855005	-1.49486764	0.73732441	-0.1254406
C	6.265910532961332	12.90304607079025	13.095591708584143	-0.16195162	0.48938392	1.43704101
C	10.852380590763888	10.007352998213305	12.153821672139491	-0.15469761	0.72278543	-1.15129808
C	11.425638558188647	0.0708730363946813	8.92624174022378	-1.16716235	-0.70808306	0.82257964
N	12.062338605020129	1.402473002439184	8.916231736325821	0.53889539	1.72835209	1.72040901
N	4.135100467665539	4.212803019314085	9.907841756577852	0.83318979	1.06788915	-0.90820451
N	6.852346462969287	13.904356175543693	14.061761665891972	0.49064703	1.16336172	0.50215737
Cl	9.376830542144619	1.2375330693153468	3.5758416387541363	0.38289422	-0.25652476	0.17907013
Cl	13.226518525540676	7.006620007392446	7.737008651836286	0.02604985	0.15125953	-0.52017414
Cl	14.598470478457564	12.865313043934938	7.029194656596618	-0.13694604	-0.2671904	0.31632917
Cl	2.9306225426596275	1.6004800216558477	13.336581617885114	0.04397891	-0.20396171	-0.37266479
Cl	7.985582483548033	0.9308169081797196	10.027471623125006	0.17815146	0.05090289	0.51943612
Cl	14.385890493775985	6.358243001501179	10.697469013743412	0.06529479	0.11174567	-0.13409719
O	1.8086405000432473	3.3702930704258645	0.7174717093711258	0.38942454	-0.21560794	-2.27811095
O	2.3735004762689353	1.9307030485356627	2.298181637163685	-0.05274082	0.33338989	-0.1411198
O	1.593870563345663	0.6072829765285997	4.674511675412316	-0.88159771	0.42486722	0.72604965
O	4.81392055191564	2.3914130870081154	3.381801686270199	0.48849424	-0.43399072	0.27015117
O	6.987054558005201	2.5418930110699867	3.0065517033271068	-0.80230118	-0.49386876	0.5742207
O	14.726798630370052	4.821892989555823	4.410121696550784	-0.40739947	0.28807033	-0.42118789
O	0.6060905781918372	7.175435031575209	3.2924316488533716	0.08779628	0.44919929	-1.01507504
O	3.552230465369388	9.226853059912726	3.0145016411792542	1.26129393	0.78996827	2.39782076
O	5.195430464373667	8.076573111851266	1.1413017529352074	-0.77630953	-0.07183433	-0.22918003
O	8.775150527908353	9.359512987244493	2.936671639061637	-1.80172875	-1.60283866	-0.02149628
O	9.276880530842417	8.715613017044449	0.1739043086994252	0.65877416	0.07082662	-1.6224673
O	1.9020505710480915	10.566313100664503	0.1532716483450802	0.41856687	0.03790658	0.17629746
O	3.858260557557939	14.288816124522414	3.277401733963877	0.57976243	-1.1051457	2.06431509
O	3.6181104552030634	11.437123000915495	1.3505617287829654	-0.76244993	-0.69428554	0.250836
O	4.337380504045116	12.13976606928888	3.8241816333073158	-0.0842525	0.45333664	-0.44267574
O	7.087184510315105	13.835196187746128	4.2395717042449546	0.78321774	0.04289421	0.00668422
O	10.55748049733223	10.63672308042249	2.889371719743281	-0.14253967	0.20013258	0.1287371
O	2.852570563171679	3.0207430105797397	5.220581758876099	0.09221101	-0.36384388	0.25390574
O	1.574500486879505	4.445403007873798	6.372835621744621	-0.30188874	-0.91788077	-0.88378236
O	6.601879594004825	0.6109730768960975	7.562263618590874	-1.70697582	-0.39781943	-1.51155179
O	14.459288564769405	0.7384529749138073	5.613551684347694	-0.87619254	-0.9207113	1.59474969
O	3.4928225472644066	9.125953105763191	8.66570163978494	0.96383443	1.12976299	1.72034173
O	0.9033205281450768	8.536503028920446	5.071601732975537	-0.31922287	0.12152337	0.92495245
O	5.551980520029451	6.900181060800346	8.581011732643484	0.02810004	-1.47918462	-0.90783238
O	7.817014521471118	8.453263016858902	5.231461723588859	-0.34908268	-0.3209956	-0.52866194
O	7.575952063138391	8.71417310517355	7.426120641964706	0.47239551	0.36035881	-0.50859998
O	12.921560488834748	9.75771298934973	5.703061648583421	-0.72968197	0.62862513	0.9432533
O	0.8047624178387773	9.82933309238464	8.225841684574675	-0.72054192	0.25499775	1.39794596
O	2.1441825546755724	12.153883062695737	9.124071644052044	-1.00188104	0.40543565	-1.70926486
O	5.3359224200385045	10.128973069619068	9.664461745937842	-0.73708519	-0.14865498	0.10607561
O	8.257159454058108	13.839556081996383	6.8450227448347105	0.49719123	-1.60168303	-0.72029841
O	8.978060581066766	11.16352307308617	7.2615997210137415	-0.02555658	-0.30912197	-0.35169648
O	11.82862053789182	11.676912980345664	6.296217688423146	0.0496762	-0.09469193	0.44422741
O	12.567668618784907	3.861133105322141	11.053411713851713	-0.54245616	-0.45691743	-0.71830606
O	0.9658825486778952	9.045392994117833	10.382411708303293	-0.50644407	-0.21457934	0.42761514
O	4.008260512722471	7.430602289741848	13.856878984938142	0.20157203	-0.8144761	-1.68980204
O	7.224518493853017	7.958395085113131	14.14505172302814	1.29038211	0.50929445	-0.99540601
O	8.382261467605845	8.94868302113834	9.705401685883665	0.53075834	1.2023667	0.6761103
O	11.62187055255909	7.698563046000254	11.606771664581192	1.41719806	0.55052654	0.02673103
O	12.800050449050383	9.500513008232844	10.814201726050609	-0.93394117	-0.68152324	0.89204507
O	1.2825525273500809	13.976703048434505	11.709171623374138	-0.08040644	1.82327654	-0.40837039
O	2.3214524281647337	12.537573038663348	13.08041168509059	0.48123695	0.2566241	0.51081796
O	9.138460501371327	13.379436100039692	12.052631745785654	0.75003648	-0.28355626	1.29982836
O	8.497490539262749	10.667383112871285	12.542811683246505	-0.16383022	-0.55457559	-0.1081592
O	9.58028056716072	10.880263035733917	9.760821724320397	-0.28980366	0.76456252	-0.24912551
197
Lattice="15.000798 0.000000 0.000000 0.000000 14.612002 0.000000 0.000000 0.000000 14.660082" Properties=species:S:1:pos:R:3:REF_forces:R:3 energy=-1148.7517628 REF_stress="0.0006671637983746568 0.0009729987504259056 -0.00108358663299751 0.0009727746615237591 0.003537699630874554 -0.0014280884144081004 -0.0010832366715808216 -0.0014277868995852471 0.004043519419703668" pbc="T T T"
Li	13.838500508366625	11.325772292209127	6.143003039749142	0.24035254	0.26210963	-0.10119585
Co	3.127560452346967	1.5798823525253631	4.3537590836533075	0.15544178	0.32824132	0.38718669
H	0.6948005058627517	2.308382399643914	2.195619084908707	-0.06223874	-0.47367075	-0.77664906
H	4.844410470175737	0.7121623680401424	1.7252669182271736	-0.16709083	0.2883431	0.81330828
H	7.73910048633731	1.6845224034362463	3.675329042395098	-0.38491866	0.34972868	0.41301095
H	7.163067447617649	0.5100123385581489	1.713156957449771	0.23604163	-0.09626892	-0.77203714
H	14.098238273602973	2.8103023194316448	2.816409055365187	0.04535823	0.51217663	-0.05998878
H	14.618028370807213	5.228302348358734	4.408419052975911	0.02109058	-0.12976063	1.98778442
H	1.507570436421378	4.731572319327705	1.7685789578373345	0.00303826	0.39064529	-1.06421564
H	2.6640404481023103	5.218152267511738	2.948109075267926	0.26530577	0.99543726	0.68913829
H	3.2655604424520064	8.839712335736916	1.9130889574353636	0.44884655	-0.04615442	0.35198473
H	3.780000505092344	9.95689235814355	3.310118984176165	0.18776422	-0.68210048	0.17110522
H	0.9307104037145928	9.525082283616626	2.322829014881172	0.04466448	0.76218726	0.0231067
H	6.544086374527653	9.368552384579763	0.817389000788005	0.1603022	-0.10150958	0.20041867
H	7.91637346534006	8.120920356414542	4.311409038627267	0.12900541	-0.49372334	-0.89325169
H	9.71159050144555	9.775672413747973	1.1622469068993848	-0.01118203	-0.33446323	-0.28649453
H	10.573830513276775	8.169992280016535	5.201299035391085	-0.03847257	-1.25913532	-0.75120427
H	3.655550435696352	12.316623961851288	3.9273689846200313	-1.42267727	-0.39348067	-2.39470379
H	3.9308204770815887	12.149002384579166	1.9010990627299504	1.33591151	0.4885587	-0.68614705
H	0.4004404490954268	11.27273233343091	2.512059008369444	0.81506916	-0.53538151	-0.1477579
H	9.209050421755435	14.428154059342308	1.088796963812475	0.5015129	0.83446702	0.7449744
H	8.664480506533224	12.862543979457886	0.613376953367077	0.31554561	-0.51643417	-0.37049404
H	6.536850439654278	13.567243998240052	1.2642670042886168	-0.39677893	0.05971317	-0.13083524
H	8.022286448763822	14.071053980445091	4.402881060380703	0.64420538	0.5108949	-0.13543407
H	7.774189452690333	10.394742303564902	5.228449067545224	-0.61657483	0.40376135	-0.23441527
H	9.415350394679923	10.914902385049777	5.010799038994822	0.89930506	1.61724197	0.65445501
H	2.8098704046767726	3.323602358367794	10.631669036253625	0.43664508	-0.14674167	-0.24450626
H	4.9851505060215375	2.756182387609261	9.62167895610995	-0.3463966	-0.9761455	0.83877267
H	4.142580440418439	2.877122272514201	7.974190956598233	0.62525398	0.51926262	0.95832084
H	5.691160508108098	3.6970123535402273	8.431449031194347	0.89899086	0.23867858	-0.76129116
H	7.896275396340436	1.344772323093827	5.94661907282129	0.43526843	0.19514233	0.39025061
H	6.483880372220316	1.5536523483095952	7.070388248767322	0.31153448	-0.65508102	-0.89805763
H	12.74896825704966	3.6572924032534666	7.50877703855524	-0.28112828	-0.22815423	-0.08629151
H	12.828218372297572	0.2119023716432592	8.884808989973367	-0.11626007	0.42128742	-0.00447587
H	11.476048251490118	0.5492123938251352	10.051768966651005	0.36599792	-0.20388337	-0.17472352
H	14.124588375143023	0.4014023529108264	5.26065902701892	0.03885438	-0.93611358	0.27264311
H	10.75594829997083	1.9176923974047286	4.721489063375815	0.07264896	-0.10886289	0.10742819
H	13.663148381532407	2.1571923105009874	7.709360092784674	0.45862205	0.16634837	0.18039698
H	10.273348330878665	2.8850123150613505	7.751000003436212	0.012162	-0.69175945	-0.4616103
H	12.241748378444923	0.727662341062236	6.597284091483363	-0.83897889	0.43347417	0.0593398
H	2.0673304595928363	4.750962299437049	10.084739051378994	-1.69898667	2.37018997	0.74231436
H	2.209300410856817	3.4887822701591857	8.938608998882918	-0.26516522	-0.50720831	-0.929656
H	3.1724104378805067	4.927932343143999	7.350817000079619	0.07980446	0.73752866	1.09884708
H	3.3311904332567943	6.416222285538618	8.47660897414691	-0.02758995	-0.14007558	-0.27645979
H	4.655070399334378	8.369930344684212	7.891227060063334	-0.82563431	0.03566758	-0.80765228
H	5.136880426410182	5.237962342669382	6.322625988268408	-0.2212498	-0.04865934	0.02590735
H	6.07337048753996	5.618052360529845	7.76865909847118	-0.84957247	0.84185013	-0.27685352
H	5.850710494439566	7.391097338663883	6.258254007789319	-2.11258941	0.28943342	1.08760256
H	8.519092473464305	8.097570377729902	8.542779013689431	1.35652941	1.19569032	1.405191
H	10.353330485063122	7.853904290714642	6.975091998010323	0.86323212	-1.98834222	0.74753292
H	13.274120389456105	9.353122403045717	7.668315967867647	0.01338629	-1.186328	-0.6206724
H	3.6771524846914247	11.555512411023262	9.014479028314641	-0.40702042	0.13945205	0.15974265
H	2.1480104508946702	9.421102402941646	5.828258994579948	0.03184005	0.85444959	-1.13581197
H	0.697172582031516	12.720122406403108	7.811885083399708	0.25284831	0.03508368	-0.23146892
H	4.870390502032088	14.398634016828272	6.938799059084881	-0.52060377	0.03261353	0.84824761
H	8.664080435253764	10.980272389205627	7.248502088440361	0.18511264	-0.08967691	-0.0822888
H	5.50583045055602	12.691813991068377	6.62488506776136	-0.62409496	-0.79828718	0.85996822
H	8.307500369055733	13.756013963903685	8.96992909137618	0.19158967	0.8840287	-0.46940255
H	9.838180434659124	10.292372373235024	8.613219095330654	0.81531843	-0.31104741	1.29407107
H	10.4960483761094	0.44117227624333283	6.2123030068093374	0.40501177	0.33929026	0.606027
H	10.236048246918129	1.0812423887547418	8.285299008217383	-0.48758125	0.84370664	0.63436743
H	4.933720420497936	1.9436924087140537	13.848639031890654	-0.33588945	-0.48350184	-0.05362735
H	2.628752571169398	0.22324070046687203	11.361179054797828	-0.24341416	-0.52517674	-0.60964335
H	5.022710403801354	4.305402331329245	11.104489081147456	-0.53040313	1.58927233	-0.2530804
H	4.300520391113447	3.1842623103473136	0.663756911735184	0.22522259	0.40791347	-0.04435137
H	8.789350448261876	1.6634122984891337	14.35663902228069	-0.92823866	-0.25672489	-0.68167474
H	7.024793392935342	1.7850423082334201	13.905478955414093	-1.14964131	1.01889559	0.31350087
H	8.109674496861636	1.084292351865408	12.71534901225807	0.40215618	0.20206788	0.10065682
H	10.61074837690733	2.654172350880761	10.56302906608732	-1.03663623	-0.60309522	-0.15255504
H	12.101648276636684	3.377882291608574	10.6621489594446	1.00328701	0.33136188	0.2222809
H	10.975348319675945	4.090832392659285	9.499749001288613	0.01765826	-0.41919862	-0.04663581
H	13.6422683209393	3.561762350909996	8.99459907744992	-0.10335805	-1.09180965	-0.26586117
H	13.981830431966408	4.0056223587423485	12.655768972798665	0.20856587	0.30786814	-0.03250871
H	13.10806830728355	1.1880423857539624	10.406859023630004	-0.15641406	0.24759862	-0.58673312
H	4.134040486185355	6.044842335759586	10.781929013233306	1.31835433	-1.06057819	0.06675355
H	5.774990366948775	5.513612347921961	10.008598983235908	0.3193376	0.57578389	-0.07800426
H	8.248475379565487	8.497111307746712	12.197359055555882	0.28250456	0.50208519	0.54403507
H	9.652660467005884	7.720180365539869	12.764289057367225	0.37600152	-0.07331068	0.39321328
H	13.450090399155	6.880248316889538	11.813079016005489	-0.47196597	-0.17330947	0.84289233
H	14.679020414923464	8.967492390868298	10.025989065765259	0.06670881	-0.09509656	-0.39612339
H	11.627200491152403	9.414942275273393	13.412829097136152	-0.51203369	0.58102453	-1.06872888
H	2.949752544891815	10.369042276650069	10.143838973151261	0.53651477	-0.10983762	-0.37352947
H	2.518140437801748	12.143632327841749	13.567461150385602	-0.13060869	0.2925764	-0.21992331
H	0.9460025170894225	11.307742397216156	11.228569083602245	-0.4334638	0.83041894	-1.25441374
H	4.645410485531573	14.58067398675813	0.170236977587574	-0.5237072	0.21154087	-0.3321448
H	6.114930498082458	14.011703974861383	12.882249061969423	1.0102666	-0.43471687	0.32180466
H	7.804943488471994	13.221174081051016	12.59104896197171	-0.6698668	0.36183612	0.26856824
H	6.690153493716599	12.59043402385232	13.909679068921418	0.27303207	0.80160776	-0.54702546
H	9.942370426438387	11.646972290298768	11.64730896541855	0.04950154	0.23818744	-0.44116472
H	9.611140508593724	13.961544041614296	14.01634905113527	-0.27816534	-0.7651103	1.27293825
H	0.2016026230763448	12.67450227595798	10.180859052146383	-0.66536251	0.49629509	0.31782078
H	11.940910377121098	10.5907222692175	12.054599029952163	-0.03546923	-0.31184483	0.02910928
C	3.1081204683503385	3.4239822801888726	2.1174390663483647	0.9603926	1.0420295	-2.67646906
C	0.9371203946566956	3.927212312047233	3.553829067780288	-2.02709565	1.37805315	1.92534449
C	2.103530385036852	4.3835923212790595	2.590569025376732	-2.19557571	-1.10474366	1.45871624
C	0.1955604516982596	1.4296623541739721	4.043489002324133	-0.36865788	1.07513036	-1.4785141
C	0.14445048320141762	2.636672287068709	3.0641789554914163	0.76709795	-0.74749633	1.0358201
C	1.3243203895033404	3.800282383173594	5.111558955731036	-0.57384076	1.36423974	-0.94602605
C	3.6422103761496465	9.821702410840224	2.2351390010949945	-1.05101473	1.11162614	-1.28276216
C	8.9883004802491	9.53189235311961	3.7205290073716584	0.08064811	-0.93173539	-2.40434728
C	4.923300416266552	10.204592380462607	1.5452490270974804	2.52210091	-0.41519003	-0.09744392
C	1.2482904955363272	10.548202367168816	2.6755091009719703	-1.01361695	-0.52750847	1.41427288
C	1.2640903859193948	10.381722279467938	4.241269048865606	-0.68601827	0.36569559	0.71141216
C	2.171960424773921	11.002502357961495	0.40875900475502247	1.11607231	-0.44868455	0.97382166
C	2.5243104159777707	10.885192386513902	1.9356390956446734	0.52967405	1.06160732	0.20015714
C	6.63384544873838	14.595303961200196	0.881956986564102	1.34443783	0.20992834	1.30718293
C	8.79641042377612	10.070632325340688	5.096818976233863	-0.16989391	-0.0169298	-0.92140446
C	4.737740396482972	3.3848523625299505	8.797469058946543	0.08619198	-0.59516867	-1.3317458
C	6.16622047615386	1.993532339124349	4.96247896875556	2.15693192	-1.73145358	-0.42409935
C	6.831940435246444	1.1418123503587112	6.076769082248883	0.52181672	1.13749516	-0.41990339
C	12.398148347229569	0.9536023165994544	9.58353899344703	-0.70645553	-0.2123088	0.54394451
C	13.097878265283668	2.920662384520181	8.246988988602682	-0.07048151	0.88349682	-0.15541645
C	10.799948340296488	1.912862400249405	7.822973969462328	0.49078534	-1.54101341	1.46613542
C	11.229948311638394	1.2311023473847378	6.534190030356573	-0.01957884	0.85509862	-1.23494203
C	2.661970488002849	3.983052368707386	9.762909055550933	2.27695888	-0.22227193	0.32230692
C	3.8191204858516814	5.51320233515482	8.080151097639222	0.12467061	-0.89473477	-0.80271155
C	5.096560381820446	5.868032293471032	7.224431699722467	-0.28522268	-0.26388046	0.98859586
C	7.987647506347199	8.219949398680304	6.588820093111795	2.39918664	0.21478362	1.93690046
C	9.156570430388213	9.240522318099634	6.286421009835267	0.1760372	0.68185421	0.13331836
C	11.856700398062143	9.204372372063332	6.37828797419913	0.66852405	3.19761858	0.3214548
C	10.542670405896503	8.541342275192124	6.203412986453397	-1.29894232	0.22329873	-0.20591786
C	3.1147526211090444	9.732852381184783	8.13707898165496	0.47497033	-2.21071797	-0.20811334
C	4.432930483896482	13.528243981276065	5.059339010464833	-0.14467868	0.92537835	-1.49480903