197
Lattice="14.696452 0.000000 0.000000 0.000000 14.315544 0.000000 0.000000 0.000000 14.362648" Properties=species:S:1:pos:R:3:REF_forces:R:3 energy=-1149.16786322 REF_stress="0.0025099271564654707 -0.001465562366543303 -0.00028376078772950227 -0.001466123634251448 0.0011725174837852684 1.256066886680163e-05 -0.00028352586980902225 1.2872363591039116e-05 0.0021813390512807063" pbc="T T T"
Li	14.610447270180137	9.728263357937733	6.00411130130952	-0.20981513	-0.27664294	-0.54205164
Co	3.340767259078938	1.760653245347023	3.581042305301066	0.7981534	-0.87797208	-0.99653416
H	8.220140283081797	3.2509532984892546	2.4469822312217153	0.47774682	-0.43955812	0.49612849
H	7.0595773692387676	0.1430333243131773	1.130813828269901	0.4520388	-0.60384885	-0.88901063
H	7.254037290190855	3.674073239404936	4.658502197876917	0.32909525	0.5530341	0.04489503
H	13.961988974100663	2.5753632855768465	2.9984322416962255	0.70850549	-0.68565458	0.39962678
H	10.530867342480938	2.1549432561822393	1.3951338134153999	-0.11506858	0.0911023	0.14052896
H	13.845388943398584	2.915843315388791	4.6407222444440706	0.71558575	0.12797276	-0.18536875
H	2.1581872971049925	4.651973318788964	2.1235422815233855	-0.03804766	-0.82147682	-0.05290309
H	0.5747073867434952	4.519003248997813	1.670992175843792	-1.31815214	0.22752808	-0.67712241
H	2.3555172880978543	8.140629347129245	1.0548322580280354	-0.05523785	-9.453e-05	-0.69006041
H	1.0214972993059797	6.377131316960018	3.2791423067811616	-0.8628826	0.00968243	0.34697421
H	14.553458986620225	5.1962532923449185	4.713422236761226	0.47821241	-0.2174163	-1.36964346
H	2.8444973331349015	9.744053259362069	0.30505216898180965	-1.20270976	1.09684989	-0.41404073
H	4.824937367128299	8.041935269666503	2.649752235318053	-0.20762809	0.3801502	-0.46488257
H	6.779324266476887	7.981607278491269	14.24868230057605	0.63790292	0.42462486	-0.05524362
H	7.3565657623766665	9.27536336431352	4.498572239907815	0.04070552	0.27176495	-0.45760132
H	10.06260738371758	9.59176336140816	3.9651622904301234	0.41186835	-0.70918803	0.73076875
H	1.3329572883737864	10.033823339115155	2.3391122779450995	-0.82199448	0.64333789	-0.27356781
H	2.000017324187558	10.276783309194174	4.0244523087409565	-0.48489202	-0.4244855	-0.55344809
H	5.200907283705369	13.49451681616109	13.994482237549558	-0.38736004	-0.10954638	0.19500282
H	5.112997371965865	12.340766889804476	4.502742291267498	-0.13704902	-0.42319435	0.74758167
H	5.164867322313114	11.723453307515419	1.356572256643872	0.47748467	0.86424614	0.33079359
H	8.223379381023253	13.138516876076919	0.5234537615513551	-0.63227842	0.44946605	-0.36377354
H	6.973078316856704	12.588376834752399	2.4884637144292276	0.06098907	-0.31331846	-0.62914952
H	2.9045573220520895	3.159473252907821	8.794562195534926	-1.51640261	0.85266702	-1.25979116
H	3.2783073396089377	4.661033340016203	6.395387188790768	0.83598863	-0.15816141	0.91661783
H	4.78093736663427	1.6607032652451301	5.875592168313208	1.03391693	-0.81132171	0.48241386
H	8.459287263642082	0.7282332771330949	5.022330776859915	0.08716438	-0.20650722	-0.95700845
H	5.542527330828785	3.3487732688603913	4.943862170407253	-0.43581476	0.34327152	-0.11661292
H	7.756327323620185	2.6935532723885016	8.372942196983496	-0.25249819	-0.03779055	0.10932054
H	5.809387263282101	0.4601933336170119	6.893136836489891	-0.10027208	0.86792044	-1.76602775
H	13.951338896490704	0.6034833356267579	9.062822286037942	0.01942041	0.64520422	0.48285155
H	10.645728929918524	3.208463333559776	9.761222298170726	0.98967017	-0.3306203	0.61188869
H	10.403028935209752	1.045013351910051	9.046872277647934	-0.39545201	-0.13575657	-0.27628954
H	11.247528931331326	2.6147533626973467	7.483520252705078	0.5260272	-0.61930713	0.07217376
H	12.947538917285097	3.1280732532866433	7.6210222169402355	-0.09801836	-0.33141775	0.12650855
H	12.660188898026258	1.3997333392418403	7.106468270519512	-0.6640231	0.87955185	0.89974879
H	3.0074972948838217	6.016743233299204	8.025172208013016	0.20221676	0.37342398	-0.01473765
H	4.657947318759119	6.561134295473416	7.539991170372256	0.14712993	0.62901381	-0.41336164
H	5.660827300092063	4.806413268234653	9.070822281241304	0.1325399	0.03266717	-0.16184924
H	8.563497303824542	9.051603258141974	8.430152216541456	-0.2461928	-1.65818535	-1.35020073
H	10.632047268264266	8.226156273908778	5.132162237039445	0.11954892	-0.32844464	-0.39273478
H	10.461987278112005	9.576813352926253	7.841245280590015	-0.06213202	-0.37671968	-0.25300404
H	3.1210256202286253	11.780083307470486	9.047212241537455	0.05736086	0.56719524	0.54432296
H	2.7393257041216352	10.35551335903261	8.191652251821422	0.5352724	-0.54209751	-0.97174456
H	0.6421757099678908	11.693483287543446	8.049382175543874	-0.555037	0.69291399	0.28937272
H	7.911450281219097	11.288223275655213	6.456396272498173	-0.10249062	0.28455759	-0.12315079
H	9.316757319229506	11.786393312774084	5.5651023006168705	1.28776177	1.4198035	0.29507503
H	13.477628905601167	12.611476825355531	9.313982207260672	-0.54922079	0.10903113	0.6934968
H	14.430388990048153	13.983816942471597	5.078292251385509	0.37673394	-0.66314305	0.54872378
H	10.784029006289646	13.100956898048963	8.942382286438116	0.54501525	-0.07140446	-0.11657741
H	12.620887353121539	11.756103340402875	5.194112217848774	-0.80264343	-0.65542321	-0.40999221
H	12.079628943346165	13.585916837853855	7.7883282566627265	-0.1240596	0.33054457	1.88505981
H	1.6763373825456076	2.0902733606361577	13.826432212635801	0.06516852	-0.19127556	0.1834134
H	5.431767376079408	1.6823333358324406	13.569632222981461	0.11024636	-0.53185406	-0.58402844
H	2.069797252290409	4.49281324831078	11.081402188843004	0.24394808	1.28703116	-0.39331442
H	4.6669672659531685	14.08156690983458	11.885392227432687	0.9008302	0.59501787	-0.70006686
H	1.8931573668098882	5.363033240365187	9.578772281890922	0.55647339	-0.08274597	-0.66187204
H	4.129027314958109	3.7614033520550647	12.113112306336056	-0.40687846	-0.17201863	0.40952128
H	3.1172872838249583	2.658153366732842	10.46972226834113	-0.58479462	-0.91308286	0.72270075
H	4.397567345762911	2.705983315732263	9.259822239733927	1.20795896	-0.5302238	0.03897646
H	6.673290249681385	2.1307332383291384	12.306692226175981	0.1091121	0.18106744	-0.46616946
H	6.01248737511786	0.221623224979867	10.64740230543424	0.21214739	1.40886532	-1.08380003
H	8.198757386839146	0.5429433312509557	11.41797218452878	0.01560404	0.53041438	-0.50170919
H	8.779917250675183	14.166896854734313	12.91088216912202	-0.58496232	-0.24923277	-0.26175231
H	7.123464314163011	1.6932532324828926	13.97916217492188	0.03320975	-0.1376509	-0.45697807
H	11.20692895492421	0.6532033658463665	10.556732198218361	-0.00629964	-0.36055703	0.12157144
H	12.358048957694992	3.9490832779395535	9.702022190039377	-0.71102585	-0.62388805	0.49074806
H	13.491788936756306	1.3175532433982144	10.666742186118498	1.05504859	-0.48467893	1.19535384
H	11.966628955437821	2.883663261797394	11.119992183658523	-0.59593863	0.05695805	-0.66453404
H	14.449968925603608	2.3713633536888845	9.457612282722792	-1.44862214	-1.24196099	0.354876
H	2.777857301924936	6.1612333073281	10.903442223731018	0.11606832	0.99874123	0.45922542
H	4.962597266065982	5.291523234936368	11.826482244800633	0.51736136	0.69212728	0.21117954
H	4.910147246772502	6.335753240301174	9.710642220777618	0.04343878	-0.84198633	-0.05631874
H	5.547067358669413	3.7187232767067098	11.134982192624129	1.01964151	-0.04487311	-0.25515072
H	8.480887373439973	6.540000258471499	10.954312282996938	0.23366377	-0.00692548	0.18707529
H	5.122317273737887	7.973388295449943	12.919880655647711	0.14215158	-0.13586065	-0.73181497
H	8.671067393745458	10.053373361218839	10.51025222608684	-0.08880478	0.38588578	-0.1791609
H	9.4591873924405	6.676632244312972	12.4998422719469	-0.34233298	0.36321752	-0.87326372
H	10.890437341708418	8.979623273417094	12.76171227651468	0.22062972	-0.18025379	0.23987759
H	12.117177348534751	6.663472251401557	10.28843217955257	-0.11507446	-0.31909485	0.30269604
H	14.519937262216484	7.687562291111336	9.678212222268687	0.17953935	-0.41527828	-0.79034256
H	1.009115685763796	9.79094324976937	11.564282186570784	0.09338489	-0.16296102	0.23914427
H	2.268975616006034	13.607633231169013	11.74871223757004	0.52739183	1.71535142	1.69892617
H	4.684367276836864	9.945563288753421	11.578322249965922	0.64738206	-0.34515212	0.82012597
H	8.004995253410927	13.118326949174762	11.610552176781528	-0.04806151	-0.17913476	0.31871341
H	9.346107308870716	9.848773321743584	13.025582279883302	-0.19176253	-0.73972806	-0.46547406
H	5.954307356294461	12.992866956706361	11.386562221314898	-0.32844061	-0.10824827	-0.42383621
H	6.415015249453574	12.295906843478235	13.231872281869117	-0.48080289	1.46808482	0.93669492
H	14.589567286512608	11.067813292994598	11.167072227243539	-0.86216771	0.16100151	0.06947181
H	12.094337299111995	11.611063263189251	10.850652309242777	0.23035929	0.39337687	-0.35255133
C	1.6065772946524703	2.666583360886685	1.4012422478139441	1.1549543	-0.72482378	2.15482951
C	1.290267329578947	3.934293317234981	2.189882205840627	2.39729437	-0.02879933	0.24581314
C	0.8671373814762152	3.8619033353416845	3.6503822996328097	-0.64096354	-0.67275486	0.40509553
C	1.911937374502579	3.9126433480420806	4.784392248068965	-0.57530978	0.22833226	-0.79682379
C	0.4886972853074936	1.329413241796222	4.468022168458431	-0.61729136	-0.72811824	0.24548379
C	6.334617282005339	2.7131632766198273	3.006582182949717	-1.45836983	-0.26368926	2.22244064
C	6.446261375285379	2.972193303311236	4.488072282110026	1.81087879	-0.36641935	0.40877724
C	5.1277273315156044	14.137416855819426	4.935002283439395	0.48126579	0.61458583	1.1505838
C	14.645958894135935	2.6536532756053255	3.8917422985446657	-1.33347726	-0.47751845	0.62075207
C	1.1449773268788088	8.323716274008321	3.585832248569146	-0.67217665	-1.80952593	0.47108423
C	3.0953873664136125	8.947143309187487	0.955322227925688	1.74394154	-1.55777147	1.1271439
C	3.295787299189554	9.375683258061777	2.5062222675158385	0.59495437	-0.90920569	-1.59308598
C	4.367987356653534	8.402753249101325	0.20125230303145603	-0.94850903	0.46083113	2.40454805
C	1.864767349389802	9.581783280194392	3.1560322908289025	1.96340459	-0.55719512	0.4764039
C	4.09613739101037	10.678253280916953	2.576582297142632	-0.72231765	-0.09811112	-0.55360037
C	7.144785338344259	13.430036887878448	0.6504037752012273	-0.19805099	1.074198	0.48707581
C	7.871433313048541	11.171323262476452	4.335102176341362	-0.39906016	-0.76111857	-0.81432406
C	6.886088256025347	1.6616433669926853	5.309672220374552	-1.26320958	0.79669675	-0.19098613
C	5.66111726108292	0.9217032677779962	5.825762252050211	-2.28233132	-0.14299157	2.12673463
C	7.757575346293453	2.152653341829583	6.467678276505699	-0.23245978	0.02958038	1.55727976
C	11.331328980369705	0.6750832426693225	9.469672311398478	1.41252425	0.99176624	-0.08502344
C	12.272548970095412	2.2570832281425304	7.753217182562034	0.15977019	0.23750486	-0.10000588
C	4.059137310432474	5.720653270517439	7.872691294051582	-0.0791039	-1.04930292	0.83996941
C	0.5699557299992504	9.418863232192296	8.878912306540148	0.88621307	-0.22865492	3.61516481
C	4.718827369677818	5.34526335610692	9.210842305007974	0.15148716	1.31577258	-0.01057034
C	8.291632347800707	8.716513316802535	6.4509381788228035	0.1042654	-0.06597056	0.11363053
C	9.333857375535228	9.799813303733169	6.120823188243394	1.8055389	-0.94193946	-0.86296767
C	10.48892734361329	9.286933329798392	4.965632211214329	-2.39531968	1.12190773	0.60015582
C	11.752777360475786	10.01963334284244	5.219612238466106	1.282697	0.62800089	0.06473957
C	2.770325664388469	10.767813325792098	9.1798622158631	0.13469873	-1.13661117	0.33403614
C	8.605267264746718	11.021053287723094	5.641572200907056	-1.13090925	0.42492213	0.18490999
C	11.765928921119391	13.642596942211485	8.912722268315036	-0.71461412	-0.88746641	-0.46678561
C	3.5201972659033127	3.1786232987236	9.63660219335728	1.58516899	0.26254713	0.89882289
C	6.433917384659393	1.4813133274981733	13.136842249080653	0.39782939	-0.20176601	1.48079135
C	7.983863372562288	14.077166884356757	12.132392294776155	1.20630863	0.69038105	1.04279819
C	5.745887275929538	14.059046841902278	11.542022235824057	-2.14872933	-2.31037678	1.47345813
C	11.737129019663065	3.055073286080977	10.035562241401811	0.87218938	1.09945017	-0.26479171
C	13.67383902697906	1.5196932998629633	9.635402194076775	1.08280656	0.86434711	-0.62641521
C	2.6021773886655404	5.243613262048279	10.395502276935336	-1.12068277	-2.35061751	2.54547274
C	4.718207326383127	4.337873256927493	11.410512224908269	-1.25331082	-0.47619377	0.18313702
C	8.783087275293932	7.217970230505745	11.771382241930871	0.31715299	-1.29392077	0.97013845
C	7.538591309525183	7.506216277488242	12.537772303064761	-2.19025204	0.68909144	0.10291598
C	9.481187392687513	8.418743281825048	11.174992222494865	-0.16967174	1.59550815	0.5216366
C	10.653687352410616	7.969991360111471	10.303242224532722	1.72484578	-2.85599474	0.27838916
C	10.045517320998972	9.443313321711399	12.26226223486201	0.40855566	0.8909569	-0.79639311
C	1.713235616713639	11.753633336511857	11.875742251171944	0.50752384	1.4182167	-0.15181202
C	0.9229256997597208	10.773733232532871	11.111372296546767	0.97837561	-1.1426965	-1.5354055
C	1.2753956962353983	10.68944331187495	9.576812211252856	-1.72571351	0.46967178	0.74150945
C	3.711225712361976	9.896753297639828	10.059282298993017	-0.22527649	1.83451353	-0.04994501
C	6.244247331225815	13.320686892389052	13.758512253359276	2.06685452	-0.51469754	-0.70360731
C	10.551067321331088	10.698813264620911	11.525122281863577	1.40191652	1.08892569	-1.06526407
N	12.306558910622636	1.9046033370717037	9.26106231080369	-1.46592699	-0.68411756	-2.59541477
N	3.9032873193709303	4.528773321187116	10.195102253464682	-0.98857285	0.50311516	-2.84612503
N	6.617816288498459	0.040223241757438404	12.691252282854466	-0.01625732	-0.02050575	-0.1468585
Cl	9.970628906306057	3.381299758606666	2.7825337715037746	0.17045047	0.14832394	-0.13762433
Cl	13.723297289612185	5.840093290595373	9.462430664034862	0.08248663	0.34790122	0.03826993
Cl	0.1998757103459428	11.99891328358507	5.874322222934607	-0.17183878	0.37097903	-0.22211521
Cl	2.300685708816113	1.1827496387840566	12.37361225786533	0.12666825	0.42640836	0.24646399
Cl	8.247388386209455	3.0405561796372296	10.187472240086167	-0.09851801	-0.06376157	0.04971558
Cl	10.906347279360332	1.2453532287683573	0.43679226952624645	0.00553012	-0.02146764	-0.05098064
O	2.1345073454710097	1.6178532643943626	1.9175622254917681	-0.36008763	1.40664392	-0.45522059
O	1.6470573480142028	0.885963224806638	4.587022168921653	-0.66851571	0.714161	-0.4984746
O	2.987457360392034	3.3172932453505455	4.567852198368913	2.2665689	-0.78321865	-0.47837134
O	4.389747363845267	0.0528632941256648	3.9723022502425014	-0.7112364	-0.05573453	-0.74206575
O	1.3340273370176947	2.801673276372643	0.1746822651023648	-0.52312327	0.19774558	-1.91944815
O	5.213817381648528	2.305733314634222	2.64786225440457	-1.28936117	-0.32890941	-1.19517583
O	7.295905717339018	2.816603243093526	2.1882922606538915	0.43725181	0.32429332	-1.60228777
O	7.595534328014042	0.7575032670235167	4.5352621999559135	1.65270047	-0.19016055	0.13687087
O	1.3645672983481967	7.1999223383909605	2.8450622797938787	0.99271017	1.53299941	-0.50624777
O	4.131027355061796	8.439123319146079	3.216212218839557	-1.14360933	-0.04744665	0.60767943
O	0.35995725072819196	8.231670334988774	4.543152177271917	0.71103458	1.04118475	-0.00793463
O	0.0680473634190116	5.0167133277011375	3.730952305184581	-1.12239617	1.47413798	1.92894069
O	7.680752290706649	8.119862360664976	13.746282170925586	-0.68357192	-1.11019632	-0.69866497
O	5.3717673486849105	7.97052633197543	0.8113022065573361	0.03290201	-0.06130576	-0.61902959
O	4.4571873229179975	11.08347335243857	3.6750222848591583	0.37126257	0.68993993	-0.12826523
O	7.306778740120356	10.06146336121242	3.8159223080982003	0.20359549	0.74680921	0.30716554
O	4.317797357693253	11.19589331625084	1.3529222767856497	0.19963284	-0.47093959	0.78908307
O	6.5477972491274254	12.555116816552573	1.5577537518183215	-0.60866359	-1.05646956	0.96585464
O	7.822778358462059	12.29132329273159	3.782952274006421	0.08445222	-1.31160991	0.56515829
O	4.114647277921918	4.635793318801803	6.979380519070717	-0.56977959	-0.23879684	-0.97037637
O	1.6970972962032387	4.502683242994342	5.842242242169133	-1.24604214	1.10967491	0.79583892
O	7.113778323780637	2.4145232860583756	7.609775257795001	-0.3316423	0.09746197	-0.73125788
O	8.974687266756874	2.209583252422859	6.382906190888133	0.78614681	-0.27412768	-0.58906537
O	14.14713898686784	0.6081333104956617	4.9903422861652595	0.32500567	1.06302173	-0.93302319
O	0.1150157532152876	9.402393342447436	7.769996203022309	-0.30622499	-0.05693413	-1.4419599
O	7.5009093135911895	8.22809230802389	5.626522299697288	0.58225651	0.28657736	-0.01027866
O	8.223896255227432	8.351596224616152	7.71477124511077	-0.04476806	0.93780775	1.58107262
O	10.982167302122706	8.37272324700171	9.192032262426144	-0.50494616	0.60790786	0.42352981
O	12.767677275676053	9.468073342749227	5.664102169445209	-0.99980069	0.23598261	-0.19516323
O	0.5181457411746928	11.806533278429113	9.041532244943069	0.98003018	-0.46643052	-1.42210892
O	5.412447273788947	12.911576858207725	5.307472293506871	0.09633218	-0.28959716	-1.06162196
O	10.03486739035353	10.262873324954079	7.273614310337936	-0.44126511	0.24447915	0.15289816
O	11.728047347372128	11.348813241278144	4.886342204895095	0.8219058	-0.3353181	0.63245089
O	0.48986565321287356	8.448043334357008	9.785212229926868	-0.08365271	0.25327524	0.22749375
O	3.84682560967328	8.700133328671422	10.081852195693942	-0.491812	-1.25095772	-0.60974368
O	4.303817358070703	8.475383302660626	13.24964074518318	0.10622729	-0.20757578	-0.05400536
O	6.387417370776883	7.224320319331397	12.072492294784375	1.59661718	0.39740623	1.05470935
O	8.532087312556953	9.09882336498446	10.343222236468135	-0.13328239	0.22295306	-0.11988934
O	11.309397318622816	6.88163927469249	10.898002226992734	-0.63576806	2.06817181	-1.04754062
O	2.0530656360273016	12.861013356159795	11.206422293416619	-0.87627404	-1.80903749	-2.72206687
O	2.0123156088489424	11.633893262640276	13.036432255424549	0.20255069	-0.79923903	2.05533444
O	4.431025728460084	10.647763320401793	10.966772311432791	-0.71703296	0.55824139	-0.72854493
O	9.831447336765567	11.583393321605886	10.993882241318246	0.16738814	-1.56252903	0.9259162
O	11.927827383817894	10.788733345417343	11.388292202324314	-1.92667494	-0.65611124	0.74621278
O	12.671568948389176	12.924906919776989	9.832392237545307	0.23115912	0.29413504	-1.46216693
197
Lattice="14.721866 0.000000 0.000000 0.000000 14.340299 0.000000 0.000000 0.000000 14.387485" Properties=species:S:1:pos:R:3:REF_forces:R:3 energy=-1149.47200452 REF_stress="0.003544312154027407 -0.001423336241706817 -0.0011624275974455663 -0.0014232000519776903 0.005344191819329287 0.0027130990888067762 -0.0011628570756885182 0.0027130829420226677 0.008050375940175497" pbc="T T T"
Li	0.09172855989528139	9.566301088323213	5.999590772005523	-0.11712145	0.01620627	-0.05624712
Co	3.684944404926469	1.8961410267483219	2.991140666085788	0.81948331	-0.32068594	0.34390537
H	0.4989944031584196	4.375980983069516	1.0827506455113964	1.41270113	-0.75829415	1.06769219
H	2.1542244205194403	4.804831068728695	1.6102506773280467	0.68242828	0.08233037	-0.42812457
H	8.688514406639024	3.5614710679232924	3.0412106979707842	-0.47177525	-0.28773639	0.24349642
H	8.527464408282476	0.5786610391030772	5.371686090562007	0.18376493	-0.10638081	-0.36187316
H	13.949910211081137	2.8072110589437442	3.0576307034560677	0.1089345	-0.02797468	0.31032042
H	14.61449027223659	3.118561036031127	4.714300732118639	-0.22620073	-0.37809194	-0.67613322
H	2.720964433621754	7.8121320339296965	1.1143907401979354	-0.12054635	-0.2996302	0.22975246
H	1.0683544667207185	6.668629988752921	3.161400729797526	0.34238339	0.52267219	-0.74577064
H	4.961404369724202	7.4056416294020355	2.328020743703717	0.29192585	1.09565519	0.99227868
H	10.489974361691575	5.503110995592638	3.0536153001501996	-0.16873182	-0.60170806	0.31354041
H	0.36276444004378394	5.387331005895488	4.344170728076241	-0.0722425	-0.60859123	-1.26597483
H	10.267254467415045	9.443731110414673	4.960070779435018	0.58402164	-0.1747809	0.92602876
H	4.0693343825478845	0.29700107382793517	14.017390665296881	-0.45389032	0.77116983	0.35314875
H	3.2343743405724594	9.840881104539568	4.203550754702807	0.22598864	0.01801623	0.35151698
H	3.0539044345754327	9.336301046662834	0.4022506407419654	-1.01371367	1.44021326	-0.74393023
H	2.2970743650373553	10.464350989371939	2.8727207265902686	0.5489289	-1.35108261	0.31601916
H	4.383124474880223	12.974910160770346	14.116160752705182	0.5381966	-0.35189432	0.38335206
H	8.146067385982269	14.332020138535134	0.9306052891925637	-0.28220715	-0.65334204	-0.79810856
H	5.272964393822128	14.124030161514703	0.9693752461538376	-0.8587367	-0.42912947	-0.56711848
H	5.67262447954668	12.388230169824723	3.9144807067658136	-0.40284314	-0.57139613	-0.90183555
H	6.036584482313705	11.380371006003795	1.1485807289254606	0.49592911	0.79762565	-0.25045456
H	7.624776422602141	12.476170189693944	2.2618352893997784	0.3452856	-0.16136909	0.32769047
H	7.9434344470865215	9.67031099074447	4.634100716016788	0.53911084	0.00591545	-1.03852589
H	0.1309143390230082	14.04671013693516	4.667060718615757	0.29605163	-0.44011554	0.06474736
H	3.2302243938164596	2.7847310627029453	8.68527073513929	-0.63492936	-0.15598262	-0.75411236
H	4.732374389319905	1.4404010160752623	5.910180750986912	-0.31974939	0.51573543	-0.17687937
H	2.929634368034307	4.308571108975188	6.472774737240027	0.7829554	0.13274172	1.099884
H	4.466494401018884	2.2308910736654766	9.805900752264463	0.4970984	0.31734427	-0.17549222
H	7.5168034615237564	3.628311058532181	5.030710743099842	0.22188624	0.25069573	0.45942995
H	5.70579446264438	3.3207910885230847	5.189530741654721	1.01209065	0.17288971	-0.6404708
H	4.966944355050926	4.75469107341342	9.412910760387936	0.98783082	-0.27866882	0.24472104
H	7.122518476228744	2.7243710230393354	8.607180643774281	-0.51665174	-0.11663052	-0.96337431
H	5.672434420258943	0.069690985468984	6.514787777289823	0.11806655	0.54853154	-0.43955904
H	10.520050250249886	13.927290149122534	9.354280750177455	-0.21477581	0.91630976	-0.5947193
H	10.663650273831328	1.1409210781483583	7.463482739650661	1.77809103	-0.25959314	-0.00281141
H	11.653350228035533	2.374471023756124	6.713792741997033	0.60646127	-0.43101274	0.92503278
H	12.431910213179906	0.7661909944111176	6.758600694964518	-0.68326868	-0.44521678	-0.51594661
H	14.339150160178294	1.9187410512924203	7.339964738571418	-0.57834146	-0.92901448	-0.75980793
H	2.3849044276448423	5.70578100846037	8.126840774916433	0.0108774	-0.08657755	0.19235174
H	4.05095442750893	6.111541061555887	7.669170691335461	0.03782762	0.24966032	0.90007237
H	7.956135442385411	9.719501084648686	8.68330065676073	0.32398735	0.33174077	0.10452504
H	11.719664430965748	6.513295008700416	9.119930769413203	0.02206309	-0.40568306	0.67857522
H	14.058924449728973	7.247861054744428	8.965020713896061	-0.20009165	-0.53735041	-0.94543341
H	10.774194408775177	8.603581027319391	6.445399668731393	-0.22277583	-0.42868524	0.37930223
H	2.7858185218999414	11.25492106583102	9.905890754561526	0.1211105	0.69421226	-0.38782003
H	2.6481085696144215	10.472751106364031	8.234480747086163	-0.51048212	0.57560071	0.15303817
H	0.380578633779275	11.475840973516933	8.321960686935682	-0.42621329	0.38188977	-0.2731121
H	8.159575433965408	12.080301071082873	6.486051652660458	-0.78202092	0.48313484	0.29668145
H	11.562350253279684	12.668550177553831	8.868340696494727	0.2553128	-0.11880597	0.11427968
H	13.299460196739723	13.930510119877956	8.41146077361302	0.63228928	0.11368975	-0.59785434
H	9.826134368730893	12.39715098307641	6.025468678781352	-0.07919046	0.11846782	-0.2195162
H	10.24187441239734	10.087690988184512	8.52217074742167	-0.65089678	0.91046654	-0.96858422
H	13.076884429529573	11.83142102186274	6.071941695436494	-1.33029514	-0.40243539	-0.37944935
H	3.5316444383935437	2.998231012838884	12.279350774092956	0.38409336	0.23136865	0.05769446
H	2.875674460462919	1.8474610172823813	10.357380693780335	-0.15212543	0.7551885	-1.03280203
H	1.570354338786291	1.597781066179566	13.668010724351769	-0.20869224	0.23355681	0.18827482
H	1.5937644609386223	3.6342310207983872	11.488120653035288	-0.77908373	-1.18657717	0.89214223
H	5.607644372097073	1.9285209918619894	13.316020749676614	-0.91244957	0.98715347	0.2384449
H	5.14305438048536	3.7086610449043387	11.668730642133612	-0.60932565	-0.47857816	-0.42987593
H	7.189290381967303	1.5372609887782234	12.869530749390963	1.13132617	0.52708696	-0.31944929
H	6.280484430508151	0.171991094030934	11.246630738756506	0.65829027	0.72385255	-0.50728693
H	6.778349372120861	1.542091088314349	0.3174653330367596	-0.3825827	-0.03574877	-1.07868043
H	10.68835017864815	2.1218009768921373	9.665320776100497	0.42441164	-0.17335014	0.02262457
H	11.541350247780745	3.438500995670421	8.846210729670807	0.15066613	-0.02249045	0.04497636
H	12.201180298929373	2.832150990088726	10.380940776655004	0.25378503	-0.32353544	0.05948625
H	14.526680231366617	1.8622310951258092	9.050680780714805	-0.12718971	0.22626193	0.10110431
H	13.74744024324002	3.262131091315409	8.228700718693531	-0.22075776	-0.10877498	0.18344742
H	1.7456443562945507	5.270391029405757	10.982760659282352	0.20023912	0.44641554	-0.05689071
H	3.9090843703799947	5.9754910591091575	10.163110650524848	-0.01561226	-0.27737728	-0.09211469
H	1.2422444347894963	4.072521038535949	9.73210072130199	1.02392553	-0.00174726	1.16120617
H	3.982344349604086	4.763450988509429	12.372100705976967	-0.66630639	0.07999279	-0.24016186
H	5.189154431114108	8.12068708672639	12.520046067551993	0.52126869	-0.27243697	0.23588144
H	8.020861450430965	6.8924480708829	10.14420074681278	0.3483049	0.67970608	0.50163433
H	9.033934427685635	6.151080994597208	11.396060744952022	-0.40609699	0.73878712	0.14978434
H	5.05152441855999	8.783080988754595	10.051510666868118	0.81196919	-0.39374587	-0.01397807
H	9.74639441304747	8.725571083533136	13.060640725348803	-0.07586972	0.32595946	0.68517529
H	6.7928224384085025	7.4738820936190775	14.013520719468609	-0.24048362	-0.02016238	0.2081547
H	10.999914472087164	7.63125497357384	12.578420699896267	-0.17451107	1.06453556	-0.42354176
H	4.56963446798588	0.41680107956618156	11.919490701018209	0.52046223	0.00848893	-0.36000086
H	1.5048585243770094	9.265271107468752	11.676310688827138	-1.08522024	1.44604943	-0.97166652
H	1.6078085320562694	12.736891023864432	12.228430729569348	0.72529096	0.08686231	-0.04698479
H	7.958877389894386	13.63118018147943	12.7748606637028	0.19431036	0.34946808	-0.34556313
H	5.279414337675186	13.151160180225048	11.751090651421569	-0.05129608	-0.08777751	-0.13968699
H	6.890379384981921	12.303990090521136	13.130020776915396	0.20193463	0.3575765	0.78374037
H	9.38805448255723	10.221131056198681	10.775640721173698	0.20746981	-0.02515808	0.01746101
H	8.851174388241649	12.78065015970107	0.43562529067073946	0.84863029	-0.28406293	-0.44250478
H	14.522694433414511	9.219731049889367	11.47026074800917	-0.07547875	0.87236409	-0.76987885
H	13.318150194272846	0.1377610869329556	10.102620770074125	0.02154636	0.59123286	-0.29640985
H	13.133264464623108	10.645810982885397	12.512530764542856	-0.15389101	0.17961247	0.2999574
H	11.432450250811675	12.328810136765808	11.008410668289127	0.18222943	0.70818336	0.15912845
C	1.9320243553250165	2.7612111079728647	0.9327707496231278	-3.0224476	1.07377816	-2.07683895
C	1.4483044768294795	3.9825411111225995	1.64464065210291	-2.40102608	0.88260721	0.38750013
C	1.0672744706441635	3.9533109927018533	3.190450645483902	0.03295488	-0.08960699	-0.47241755
C	0.6730644196461758	1.3647410245172191	3.796340747736568	-0.16147103	0.31621088	0.86313761
C	2.1550444284456143	4.005791038021004	4.2795907732703204	0.85975708	0.93476269	0.94594941
C	6.689918362950601	2.9312510609109736	3.2533907147016508	0.07170449	0.53708736	-0.29337558
C	0.1565643930598524	2.8099309834702475	3.6656107318408426	-0.81730698	-0.43877747	0.14119688
C	1.715534460226196	8.479340978179994	3.6195907771015765	0.08666628	0.08126807	-0.2166806
C	3.489684470870696	8.559821031064809	0.9552406927275212	1.13522204	0.09063096	0.59026984
C	4.022004467248533	9.110010983777444	2.345080704540482	-1.55040702	-0.59644821	-0.60750763
C	2.824974415640054	9.503101095829798	3.255130737188346	-1.41132572	1.00537108	-0.30500786
C	4.553254478418573	8.01939997689145	0.0506006423472858	0.6182554	0.00777811	0.34067713
C	4.827674473863119	13.948980138287016	14.346630716401368	1.63122762	0.2117634	-0.83895023
C	4.866964336582193	10.411141022829616	2.2099407804886724	-0.39430862	-0.02334094	1.6811562
C	8.64557440450854	11.4899511107967	4.48096075283087	-0.03425579	-0.96567438	-1.38059926
C	6.697855362470137	2.9640010057409056	4.775670695052503	-0.79595386	-0.29177493	0.14582575
C	5.581784384253635	0.815451068974844	5.680820781790878	0.5238388	-2.28862967	-1.38488072
C	6.916028408488159	1.5652710345532428	5.443770701637853	0.73093268	0.67296833	0.19261853
C	7.535299424865371	1.7958109884739824	6.8605876802378765	-0.29577121	1.03637625	-0.78830231
C	11.773450178864486	1.4272710382376144	7.326279650189624	-2.05411804	0.28952677	-1.7917304
C	3.945044441487901	5.034381111803942	9.580560646494778	0.53488892	0.97447215	-0.35494416
C	3.427064425730693	5.347791072854167	8.172410689111762	-0.44136702	-1.42630795	-1.5348165
C	0.4141486099713046	8.903861010531969	8.925010699566439	0.25139807	0.56253541	-1.23568266
C	8.265920451121419	9.418761064641622	6.749905762025796	-0.41112721	0.07939064	1.74405117
C	10.573134354023642	7.847941051359375	9.894160637698599	-0.90470161	1.36796302	-0.69318565
C	10.623044423526606	9.589111054845842	6.035587685026947	-1.73309958	1.44837964	-1.65376724
C	0.9073885302180026	10.211111059022514	9.688930639674718	-0.84431336	-1.9976019	0.36150475
C	2.428768521292849	10.413791110099602	9.317190676013821	-0.54504586	-0.41889437	0.81503119
C	5.345314414519885	14.217190050249043	4.4188906948564695	-1.8254521	1.67775159	1.29798251
C	9.446034342809428	10.446091056344404	6.709346721252545	1.05646692	-2.18813552	0.32342743