197
Lattice="14.616639 0.000000 0.000000 0.000000 14.237800 0.000000 0.000000 0.000000 14.284649" Properties=species:S:1:pos:R:3:REF_forces:R:3 REF_energy=-1148.82726786 REF_stress="0.004431615208849264 0.0026988485500686692 -0.0021016523685876017 0.0026986474361616153 0.005742311497097087 -0.0019378525686198805 -0.0021017507035638802 -0.0019374651206993819 0.007988271095610785" pbc="T T T"
Li	14.045380942576056	9.831521196899965	5.500382362300259	0.52895541	-0.39518607	0.09616927
Co	3.284340939765481	1.771551302807299	3.3777922880020292	-0.42701768	0.567239	-0.74813545
H	0.513110971351391	4.461341294169019	1.0858722750109107	-0.01269096	0.62515245	0.34328174
H	2.2385109220776633	4.834691279930018	1.6642322697455205	-1.72401826	-1.2952682	0.33982591
H	7.114331974013675	0.8542312370772642	0.28882373823147034	0.26625399	0.21994199	0.35761925
H	8.228759047624958	2.9170412178767706	2.741122357723039	-0.94196021	-0.62652509	0.20096608
H	8.411350978386695	14.15917083507204	4.586330840156875	-0.00472707	-0.00341207	0.10825552
H	5.504670955485187	0.3712012170589503	14.042902339587135	1.42322298	-0.28973118	-1.02845964
H	10.71299101792302	2.951571298760403	2.2424537033888075	-0.10997179	-0.10756672	0.03532839
H	13.958809951902165	2.4360612986099017	2.3281123128911716	-0.20453822	0.32528251	-0.36956008
H	2.526740956690788	7.480597240886026	0.7170623612321648	0.25125084	0.73850623	0.04060262
H	0.314750902823173	6.673090190460728	2.72420233431467	-0.02025714	0.46129967	-0.20706641
H	3.917550986713442	8.508111325435687	2.9474022540771947	0.90101485	-0.4136356	-0.09689916
H	14.568749871142558	5.403481261516866	4.386952286076006	0.1563443	0.38880223	0.28301398
H	9.292551014419262	9.171641191120019	1.6599937288158957	0.10700896	0.23241522	0.87451217
H	10.154991032858673	7.677551284311767	5.714892358939543	0.16730766	-0.54463197	-0.44395536
H	3.1460710432918293	12.010791252083449	14.000480932976439	0.00792286	0.22658428	-0.11632347
H	0.6492610166781245	9.87909125122082	0.924402321358184	-0.04544002	-0.12986091	-0.24658583
H	1.077291017530187	10.675931199875231	2.4377522761394	-0.19933663	0.95143328	0.42370749
H	4.457000995286343	12.025620774541084	3.393502258828339	1.48641336	0.30736643	0.89158111
H	5.859611037933333	12.130030829687767	0.8423237304854454	0.94370696	0.95957631	-0.32799713
H	7.320939334903041	12.998970710304826	1.542403644394903	-0.02313355	0.31901961	0.26686921
H	14.202299916353235	14.059100745971994	4.669002243946099	-0.59923453	0.74872849	-0.12751042
H	3.7326809066049584	3.1763712033338174	8.44399232786978	0.24942374	0.11679862	0.97521404
H	2.270710939185345	4.91463125619285	9.205672360433352	-0.22687985	0.10440444	1.14135102
H	4.698891022437945	0.7272312044720249	5.92998231231158	0.0381513	0.33266738	-0.1039806
H	7.354779046568132	2.8787712941958463	4.612172340842128	-0.68345376	-0.31670475	0.25017432
H	5.641831010563366	2.727331224463722	5.07202231978655	-0.47038615	0.27699672	-0.07548702
H	7.332442629756691	2.3005312579402264	8.071352271264598	-0.29833819	-0.05322969	-0.55502773
H	5.805040985744624	5.078331210327045	8.599852271481756	1.83346519	-1.10112955	-0.1952084
H	13.472379900957325	3.0667313196711214	3.8525123004356683	-1.2489472	0.18997836	0.89177655
H	10.895009976437917	3.494301266392118	11.177182277384306	0.50051336	-0.35913835	-0.39311608
H	13.917449979497297	3.040721280392268	8.973822228870668	-0.35730162	-0.18411828	0.51231881
H	12.011319965478739	4.232061323601788	9.933472349164134	-0.37942656	-0.79663108	0.16379593
H	10.80380989620856	2.8902012572644797	9.478772271729381	-0.0097267	0.79537774	0.21186852
H	12.741909861437726	1.910651186948117	8.316692253569734	-0.08722139	-0.20761448	0.2255593
H	9.81140997903774	0.7053212243180664	8.310232306937879	-0.54307557	0.00660728	-0.58162356
H	3.0933309942996603	4.786321203654696	6.1316412676933565	-0.27996484	0.03589179	0.02074433
H	3.344251034828183	6.508995279768125	7.670446323415468	0.22881141	-0.44014387	-0.46782213
H	0.48433197858995697	7.400078782829103	9.001312320849694	0.09805712	1.23040143	-0.10806898
H	7.374508731989232	7.880994204864192	4.881972355467381	-0.65262791	-0.56399816	0.70659696
H	4.927550945010346	6.249541283077346	6.804443359501836	-0.28403844	0.21507476	0.24681349
H	8.774851003103128	7.513975199033308	8.808012313283326	0.32440488	0.19026852	-0.0339881
H	10.56055102081929	7.6564192575230345	7.422824225651591	0.33275738	-0.28201089	0.38539949
H	0.6416119833492	11.597921263844547	7.428709358024185	0.40167089	0.1890072	-0.00922949
H	3.487832033230707	10.025981204985541	7.998382286565272	0.47436521	0.4730807	0.31467451
H	9.305060957197398	10.692341260456473	5.543412294940888	-1.40453927	-1.5195192	-0.19045148
H	7.570895992758369	10.205791229265301	5.465102280059162	-1.5784004	0.71565741	0.93039596
H	5.602870944107699	13.521390741691517	6.307962256252677	0.30794826	0.59782481	-1.0476874
H	9.394440973544702	10.338191232090699	8.092902234973957	2.24333381	1.60240795	0.19859725
H	12.000571035361299	11.102921241022186	6.4494502720717675	-0.17891851	-0.11552118	0.12996745
H	10.220209891188015	14.023790718431206	10.445922261072056	0.07705307	0.27218853	-1.27222712
H	11.501109958459754	13.685680710237406	9.283352279465772	1.32969532	-1.98156786	-0.85394606
H	5.250431037751951	2.929021187140475	9.348492276886974	0.36292218	0.06030803	0.20500659
H	2.413810904000025	4.5504012929079805	11.044022354539672	0.34104876	0.5974293	-0.78821387
H	4.633920939303533	4.365061307298536	11.933182305129037	-0.89264716	-1.3277647	1.36157723
H	1.720141030198452	2.1721013231301978	13.486992241423055	0.21660478	-0.36991109	-0.26067283
H	3.681050991341042	2.628491281241341	10.225562272295708	0.37199099	0.67102638	-0.46061939
H	8.231961991718071	2.2580112087275723	11.551952317940744	0.24747421	0.80438236	-1.17065009
H	6.260091013026877	2.1049212627882286	12.557912269037589	0.24751417	-0.76637544	-0.30513197
H	6.693883039119419	0.689851285638471	11.499002268240304	-0.06532006	0.16494037	0.36796
H	6.054330978697442	4.755781266083741	10.97740232467806	0.4409985	0.16840977	0.00441389
H	12.546499869148787	2.801271249635044	12.513422302464576	0.05624704	0.11564286	-0.37274468
H	12.783409861243735	0.2075112293844117	11.097922333371347	-0.61235432	0.45060029	0.04551976
H	14.059299929348972	2.0580912892859025	11.94729225246678	0.00749333	-0.20896199	-0.33002641
H	14.144059918456959	1.3094712081219848	9.262642253093505	0.0324873	-0.54546531	0.59912684
H	11.27150989367009	1.1171112754641346	11.717662240987956	0.1499143	-0.11780603	0.37147069
H	13.672419859800067	3.722051243024004	11.369662346121606	-0.41572187	-0.73104465	0.40808821
H	2.7770510448759276	6.196831240755385	10.27066233621	-0.10751398	1.76392213	0.63034376
H	5.112920914170919	6.597603228372645	9.178752225933067	-0.28905092	-1.27625361	-0.35966919
H	4.760060925611748	6.065121201694242	11.38595227368067	0.74879567	-0.81668668	0.16317233
H	4.392210989143794	9.334481324541807	11.898642310531388	-0.22825446	-0.08560174	-0.45757722
H	2.6665109588198783	9.052061187729416	13.98141092710879	-0.66997211	-1.1174797	0.61643324
H	8.640610913987992	7.291741230687586	12.482452327242541	1.39080385	-0.6790241	0.44240614
H	6.228550937167789	7.954158269962219	1.0515922610176005	0.23987593	0.25403552	-0.40814911
H	10.30221098969419	6.90467725406056	13.526052327374037	-0.55750332	-0.3197567	-1.04883553
H	12.351250952221077	8.65453128943858	13.118832279155153	0.28778491	-0.60812519	-0.30134386
H	12.505171030184883	6.9222793032167775	10.245052246831904	-0.06059081	0.06347607	-0.38016766
H	2.337342057170036	13.53966125553473	11.452492309510179	0.26102299	-0.37140436	-0.67072655
H	1.197561984800809	10.084041242851379	10.94567226330455	-0.39391731	0.41981277	-0.60976449
H	3.6309319980453867	11.33842127906135	9.345912326505136	-0.3636601	0.13103177	-0.75389608
H	8.99949091146511	13.83146082753032	12.753672235937639	-0.02917121	-0.00737444	-0.40659906
H	6.722371014599358	12.768940834837405	11.634602294757082	-0.37619816	-0.49146308	0.76267098
H	5.490200921423855	12.349430764041024	12.999052358105315	0.12546934	0.06987225	-0.9272325
H	6.819535999017821	11.234770810518526	12.691782281763633	0.49768235	0.62597344	0.01678671
H	9.315290996632115	12.469040809188593	13.83530225601029	0.00320117	-1.3393271	0.19557248
H	8.989381020802565	14.115520731712277	0.1790936388506391	-0.28767927	-0.84036785	-0.48213078
H	7.511638969123953	11.433670734003298	0.6117636455369235	-0.88397363	1.8960665	0.19690797
H	11.138951010366982	9.72910130136879	13.755202231813753	0.35625522	-0.42473564	-1.01573804
H	9.73706098335467	10.335261235329536	11.260892317972509	-0.74427717	-1.18266272	0.61697641
H	13.487901017525552	11.778181202588824	11.852582318231848	-0.25017441	-0.47331967	0.38375151
H	14.468721048654622	10.791641226981023	9.958392347168846	-1.79252568	-0.30303793	0.03433181
C	1.6651109923819867	2.833981312607313	1.0419422666626261	0.44339739	-0.25942483	-0.29064837
C	1.3071509661603815	4.102521267563965	1.7566322334569635	0.58807133	1.41736347	0.64833787
C	0.675880985700254	4.029451314320698	3.218072346648063	-1.35938267	0.2236451	-1.15326995
C	0.2584609107292175	1.4553212330104932	3.8821322335194623	-0.45355201	-1.02746049	1.19268208
C	1.6460810054674235	4.1128012435661745	4.3603922675666755	2.80800946	-0.46088984	-0.22996138
C	6.21198093058851	2.3829812158786754	3.0004922933338167	1.67538463	0.02511278	0.43952093
C	6.413812012368185	2.275341315913149	4.458142260714531	1.86739222	0.19393337	1.31380046
C	14.321039936860235	2.759111274371998	3.3089722794110705	2.42924554	0.10423725	-0.48861532
C	0.47268090951652253	8.681431191186809	2.7940822638310063	1.72289326	-0.57170365	-0.45514566
C	3.002811026280647	8.487591239269893	0.6130122666701754	-0.23227375	0.92972715	-1.45346161
C	8.584680929711375	9.120131252918757	4.163452245846606	0.04971052	-0.73933951	0.85334367
C	2.7466709454839107	9.46288121759487	1.7251023000102004	-1.96002554	0.87145299	1.01422821
C	1.14276098971669	9.762111212398741	1.887552323402687	0.53978031	-0.85704086	0.74951533
C	3.264350932004682	10.895521208851948	1.253782319633953	-0.13819486	-1.22333762	0.66396359
C	6.933171012205142	12.467020750194115	0.6803636705395959	-0.02010998	-3.32589575	1.10896056
C	4.807990931058252	13.625130765993259	4.288082233632208	-0.17146838	2.36396181	1.3014441
C	6.7574100214902995	0.8698812839206611	5.09116232043229	0.43839157	-0.11004123	-0.65629246
C	7.57469295705841	1.136431257509229	6.402333358623054	-1.73180777	-0.52448825	1.81698685
C	11.90880996852904	0.8664912638573301	10.869822350602993	-0.14264194	0.70664198	-1.81559158
C	13.392739974307135	2.0823213188700156	9.183262318032387	-0.65144745	1.29359132	-0.12342907
C	11.486009947259678	3.2872712746311437	10.25249226320352	-1.63495514	1.08451098	-1.21711023
C	11.012209987865143	0.2306512130380392	9.749502359824326	-0.98062623	0.67988242	2.45721911
C	4.162521032024589	5.7672613103372194	7.453454226237184	-0.07773435	1.17592939	0.36375275
C	4.897170991784718	5.5595312459743385	8.764882245256082	-1.16758265	1.67257093	0.52972081
C	7.877936910868197	7.7739252406590165	7.0641722683316805	0.81204171	0.90503824	1.26902909
C	8.884690952153473	8.935221248854514	6.83906434805699	-0.73229953	0.68698994	-1.60288945
C	10.279410933095253	8.292682313365768	6.593971347325974	-0.32071473	1.39210277	0.09895402
C	11.440001006670373	9.261241229594395	6.302875350043292	-1.19732589	-1.45224062	1.00595214
C	0.9801320259336945	9.303501296587998	8.28068222578569	0.44492925	-0.74953254	0.41810133
C	1.594061995274658	10.584511285867489	8.77397228138633	1.6369649	-0.41990352	4.06773525
C	3.17793210054226	10.39617125352329	8.995122354076189	0.19583827	-1.15323794	0.38036253
C	5.439180958503322	0.0525212491004586	5.486372264656159	0.53261244	-0.06676452	0.76952292
C	8.54462096117472	9.802061196421844	5.536932349801006	2.39922712	0.25654757	-0.23578041
C	4.22027093401687	3.2514512491119056	9.458422361348067	-1.04000883	0.11176345	-0.42762249
C	2.7986009403454704	5.155851187807161	10.177052319916498	-0.37991304	-2.33769602	-2.12585751
C	5.018950980860538	4.986591230586316	11.194342282888988	-0.70236237	1.94389857	-2.85327204
C	6.967402011294927	1.2257713137645525	12.438192343511828	-1.83820806	0.1739895	0.9962807
C	6.6199699116098385	0.37481121112471083	13.734242366937647	-0.28218157	0.44604582	-0.59395936
C	13.236919879446218	2.721921287783907	11.655122335303103	1.14242164	0.68316294	-0.23295818
C	4.431371011220298	8.390921279070833	0.2226622455895968	2.10189925	-2.40307958	0.87536289
C	9.577570942786187	7.6060163082336745	13.041452337743124	-0.99830029	1.10995961	0.28142515
C	8.915361045662257	8.20886922850223	0.0686637345353838	-1.70081734	0.06006595	-0.58778424
C	10.836390969093667	7.945434200690462	10.75790227174683	-0.56420916	-1.60829123	-0.27571074
C	10.327111018811072	8.662841323500587	12.046122307894528	-1.05905836	-1.14708161	1.54533962
C	11.532600922411971	9.27011123631113	12.78349229694818	-1.15784674	2.75751065	0.66334797
C	3.775632046325923	9.374741265460242	10.040362231865815	-0.72369878	-1.49488141	-1.56517476
C	1.1049820938545725	12.246811254560718	10.752162271403911	-1.0291991	0.24095309	-0.5686983
C	0.8744420330140346	10.842941300017507	10.184602328082256	2.20274118	0.36676672	0.42684068
C	8.728461006736397	13.34019082342359	13.683252313870241	-0.48789212	2.28660355	-0.01176708
C	6.5382259197827945	12.307770820296767	12.640142277185381	-0.08307869	0.74147914	-0.03925133
C	12.008501000490842	10.467241223069387	11.95767233521119	2.44334103	-0.7314877	2.06330712
N	12.469389936534451	2.232271260505424	10.433342342444785	2.59278683	-0.87342803	1.36866407
N	4.202891019473372	4.744341194177455	9.839532357488203	0.84060883	-0.96295811	2.04269573
N	7.198811031321043	13.179700781188924	13.717992293548148	0.67978292	-0.43728368	-0.1996576
Cl	9.696709851370132	3.254471798277952	3.7342336959526374	-0.08276335	0.07933025	-0.24571182
Cl	11.377371047431856	2.5624112332895144	1.0802122687000948	0.12022365	0.00998666	-0.11613337
Cl	13.675841030312704	12.062171199175186	5.740382314422996	-0.08075777	0.14440039	0.06878551
Cl	13.68324099611392	6.190101317682998	8.995730880106123	0.1543625	-0.27705414	-0.01866034
Cl	2.5066519942842977	1.1194217855686173	11.863172242464046	-0.0180483	0.16035868	0.52312019
Cl	7.681788047480334	3.127972224325489	9.75730234934041	0.23204225	-0.10298441	-0.14638355
O	1.3334809410657429	2.911151324975474	14.056330909187135	-0.37811585	0.46085315	-0.53100104
O	2.230331012422075	1.8280112967642044	1.4768822468563472	0.65207947	-0.32943825	0.96354496
O	1.401350965367836	0.9605013183519336	3.988362308302772	-0.26803491	0.90096857	-0.44452765
O	2.737551039777448	3.413161186008588	4.280122256051916	-0.05240762	-0.58073547	-0.33483877
O	5.106181035784685	2.2997212695261027	2.473402330778977	-2.07168264	-0.1590885	-0.95282001
O	7.274286823700768	2.5949712298549477	2.264342356116236	0.55711019	0.41392406	-0.41111581
O	7.55417397313401	0.1051311996918645	4.153422279839138	-0.51368456	0.21438157	0.58807243
O	13.846829980743152	0.727171263336088	4.354122306761067	0.52654115	-0.51031781	-0.06304476
O	0.5913209522131034	7.490372202139616	2.148232304135653	-0.74110556	0.14840697	0.86430495
O	0.134870943252219	8.83473128704692	3.9701022420101753	-0.18630816	-0.03357041	-1.17823365
O	14.47709989076632	5.2810112695817235	3.413532335927723	0.11872636	-1.46392269	-1.01007154
O	3.1548809300861627	9.084231210966271	3.030432345392513	-0.41324235	0.87188379	-0.56420013
O	5.288930972413471	8.164793272559125	1.3151223148372437	-1.73119377	0.54560432	-1.08959256
O	7.828486921137283	8.014203199457747	4.011692282072932	0.82376799	1.08409497	-0.89120344
O	9.722551045869006	8.98595124039862	0.7760236767522489	-0.10967714	-0.41241463	-0.34586501
O	9.252910981919642	9.577091292522281	3.247112322999104	0.22888377	0.34173205	-0.8436279
O	2.9715809693336874	11.081091277301473	14.249770906309683	-0.17844665	0.30505968	-0.31836707
O	3.818460990945265	11.7529112441285	1.92758233699293	0.09724549	0.07313384	0.2704789
O	3.9917209285693747	14.191960772099561	3.531062281978152	-0.13136983	-0.21515699	-0.03614528
O	5.132850993712023	12.414010717436478	4.147982257116607	-1.14007363	-3.39954747	-1.8876267
O	3.72084099055629	4.582711273714018	6.856362057574079	0.0213843	-0.70180642	0.09118266
O	6.9001789194327605	2.08096132426082	7.121821253185801	1.62198758	-0.75514808	-0.19855154
O	8.459711005351108	0.371041326570453	6.828250297688416	-0.41394749	1.08926015	-0.89986113
O	10.569709952951749	1.1222612299248966	8.74420235949234	-0.02627699	-0.04620585	0.62389655
O	4.011432050859008	8.16390426435772	9.789302247725786	-0.37719042	2.44030563	0.76517251
O	1.538540984555862	4.968691326664349	5.244972274125115	-1.12906601	0.54917714	0.58065342
O	1.055841976869399	8.305688258462164	9.189182304947543	-0.554259	-0.06542244	-1.13739111
O	8.091462911638155	7.127506220047805	8.193452304938425	-0.82142526	-0.60169148	-0.05007153
O	6.930039981975663	7.515866263564227	6.33269026858034	-0.26306549	-0.36790573	-0.35479324
O	12.479331005017125	8.816931190099519	5.8488923619677555	0.54295879	0.2935143	-0.5630888
O	1.4603520516542376	11.683671258953423	7.992842271302613	-0.67883685	0.70606705	-1.54864029
O	8.67023094815461	9.770451288217712	7.9773522840645885	-1.71192679	-1.87306746	-0.32016224
O	0.5123419899762316	9.315021242549534	7.149978295407493	-0.6919683	-0.79673812	-0.54827042
O	11.209870942552381	10.497291237959203	6.714834330431907	0.62866288	0.99996989	-0.16713384
O	8.281017039864556	1.738451266506451	12.368802234595641	0.08865608	-1.19313322	1.26305443
O	4.7757609498407225	8.28146520539981	13.32852092120234	0.33892142	0.59138643	0.51592585
O	7.715593994709453	7.974108274635631	0.42985364537028	2.81485459	0.12288975	-1.06903626
O	12.022980973866659	7.433083283495239	11.002822285383422	0.47001964	0.27328751	0.50204056
O	10.206051045369929	7.687329235503255	9.716622241392837	0.02734569	0.7787938	0.78653971
O	2.3672820495632685	12.577331234213732	10.995722243648247	-0.58538793	0.64931184	0.77128197
O	4.04163207325916	9.97607131069321	11.2078122779699	0.23218829	-0.14684548	0.52972441
O	0.1276320528122315	13.027091218605047	10.931332333124505	0.82799115	-1.02013845	0.24791414
O	9.268810961769452	9.586571246570024	11.783462332020502	1.23137262	1.28633613	-0.80422057
O	13.163120907886835	11.037701298538758	12.469782272482668	-0.76203936	0.11512336	-0.7741589
O	11.476271026893683	10.859901224415824	10.94976224388884	-0.86213993	0.89302535	-1.4928821
197
Lattice="14.507662 0.000000 0.000000 0.000000 14.131647 0.000000 0.000000 0.000000 14.178146" Properties=species:S:1:pos:R:3:REF_forces:R:3 REF_energy=-1148.66866935 REF_stress="0.008470004463817475 0.0024591396222176107 -0.0020091723210844646 0.0024594842409024873 0.005523588763629024 -0.0007822574014181995 -0.002008779049835952 -0.0007825657756595821 0.008397135674893504" pbc="T T T"
Li	14.260382240701807	7.677504867054859	6.276267160427781	-0.29946727	0.41187558	-0.05489442
Co	3.224312258512131	1.7561848091483137	3.5551612850902496	-0.2104763	0.08948998	0.07724026
H	1.9697522148246545	4.949504806293757	1.8844511859998034	-0.23571137	-0.86663052	-0.11931279
H	14.14617386675625	2.0033148062695187	2.258251211116467	0.04911107	0.06441871	0.30788784
H	8.011536347649217	2.727834861811763	2.4276912616906463	-0.15234559	0.55261311	0.15656222
H	13.200013775442633	2.7395648351135957	3.556251159206323	-0.4832007	0.42230031	-0.21742541
H	10.61790230599716	2.573664814784789	1.4698647452664946	0.04342613	-0.576303	-0.37797319
H	0.3921922884757976	4.547114788239463	1.1568411879810618	0.29717614	-0.25130588	0.00014646
H	2.0878122278377758	9.066764862531118	0.5379112193551279	-1.53765385	-1.07243925	-0.00943538
H	0.4175722817620928	6.423639895499316	2.73081124191326	-0.09658623	0.4499301	-0.16553599
H	4.25472225757329	8.850804755792886	3.8192611631784668	-0.72569596	-0.58627453	-0.89901851
H	14.085033793414095	5.103504849611531	4.270791174720034	0.0848848	0.34554917	1.36696757
H	10.336252305390706	8.299684809406001	4.880901202014793	-0.24890456	0.70893259	0.81166094
H	2.7559522805438683	10.607164797359658	0.6993411843222147	0.45830953	-1.22055097	0.35214156
H	0.7901722634543417	9.953634786130754	2.315811224648588	0.0241028	-0.11044784	-0.07939843
H	3.250432287614602	12.723144863128635	3.12818115943662	-0.26572545	-1.0576012	-0.66660342
H	6.719873249675273	12.136101423058651	13.982401239009848	-0.57525864	0.63259395	-0.81936118
H	7.950106266152478	8.840214782426308	3.731151213970696	0.81352356	1.06800219	-0.50970156
H	8.558872263158115	13.765631490422807	1.0990547494504537	-0.53434183	-0.06274892	1.14891117
H	9.557052331450809	11.70504154423024	0.791894848184076	0.08340416	-0.50199517	0.30855852
H	5.033912221226711	12.01522143736155	4.905971284095248	-0.80779957	-0.13806718	-0.44329957
H	3.8162222387810503	2.546144846098579	8.485411227132229	0.54958225	0.06087983	1.90471546
H	3.4188022595387224	4.195714860260632	6.0246392306281775	0.81933712	-0.21086264	0.73968446
H	4.97673230426059	1.5110148714174636	6.46193622631306	-1.89142556	2.40615865	0.62093287
H	2.0820122098227034	4.298124783786185	8.836601220355506	-0.38637655	-0.10062629	-0.69964146
H	7.416047327273446	3.4828847854602007	4.558061263267086	-0.64592361	-0.49290983	-0.47418812
H	5.668492280752518	3.3877147871463764	4.90958118195779	0.10690098	-0.21986388	0.12876754
H	7.919313319261532	2.516324810603615	8.405851267347606	-0.06226526	0.61232134	0.57876482
H	8.631622237740276	0.8328648467113975	4.85947759741467	0.98612763	0.19654786	0.5149603
H	6.135192292085086	0.417264848001617	7.045711197302881	-0.64400808	-0.10422284	-1.19436319
H	10.93974389695959	0.2111648150804885	8.695421193027068	-0.1685489	-0.00331771	0.02728716
H	0.06891226286969361	0.325574767675355	8.674301284323477	0.10502286	0.34210297	0.60778226
H	12.416493855120013	3.5777048842029715	8.164981147933227	0.46699781	-0.41994352	0.26862492
H	10.977143778001576	2.529524757789981	8.180961194993017	0.74396437	-0.02325543	0.01761859
H	12.155503780111308	2.341944813069543	6.897132304259946	0.40629333	-0.3498887	-0.46462859
H	14.17604383621875	1.4105447990275566	7.343043232808375	0.38274387	0.13202427	0.95709528
H	0.14401233354795842	2.207444887647637	8.921391214795229	0.37642814	-0.3879181	0.00336256
H	5.01703226684842	5.927574866030302	9.426991147343708	-0.23959092	0.76124419	-0.04201348
H	3.2187022908634946	5.890444812356225	7.521887222565182	-0.16267482	0.12828222	0.0381711
H	4.931092216529139	5.9948547878321525	6.9126722616545475	-0.45689758	0.08125977	0.43922756
H	5.871742297982268	4.66256483002777	8.613181280004246	-1.37283509	-0.65172792	0.62638585
H	7.977369208832646	8.7777048566347	8.0830311780049	-0.20379869	-0.0432582	-0.07429885
H	13.734702346833368	7.28922572212999	9.009361225697734	0.68520855	0.34525305	0.3240452
H	10.422712310300298	8.125257894805051	6.602622145238414	0.38946144	0.33487593	0.347526
H	1.3127623155637314	10.132424846634894	3.9731012827986456	0.06949135	-0.65013546	-0.39789466
H	2.951620738918978	10.03949485563156	8.133271156316676	-0.24375247	-0.46120509	-1.11318983
H	0.42737075637971683	11.040664787615126	8.025231270235183	0.10105169	0.22619379	0.29119423
H	7.803161208820166	11.203384763498285	4.915821267764562	0.50197593	0.11993559	0.20698309
H	12.198213900514101	13.984981496559442	7.361240174843959	-0.56078102	0.82627044	0.89817975
H	9.6455322380794	9.892204800776138	7.892521267584026	-0.12766757	0.61572246	0.10561509
H	12.583072275918088	11.425644758313087	5.606511230698119	-0.36467123	-0.36532982	-0.55987887
H	9.478782336721684	11.79565479308177	5.205821216625246	0.43379873	0.31455162	-0.25282068
H	12.503853915352787	13.442461505057883	8.966471198495272	-0.2373769	-0.17395345	0.61594769
H	13.996623813714223	0.053334812887631006	5.503551232701031	0.170846	0.86050933	-0.5255732
H	1.8996622199895201	1.9519548910012252	13.690051262378391	0.56140894	-1.53780022	-0.79066351
H	4.126372250368892	3.8849747886561152	11.93447120410236	-0.45450958	-0.53083373	0.40149467
H	3.3931622889572717	2.179654863193946	10.293791269839438	0.62994617	0.16623688	-0.472464
H	1.874002228835117	4.233784809753399	10.675781159459927	1.20738493	-0.17608103	-1.38736184
H	5.163982256785663	2.3448648352168324	9.771361168571229	-0.51232907	0.61329451	-0.06852251
H	7.039822316187201	1.251014759742704	11.218331184764024	0.23289354	0.01241922	0.37777765
H	8.544752246315	1.1421948626131782	13.076481200228855	0.13642168	0.20195087	0.4175868
H	5.107292263550423	0.8707647924949655	13.827401205230231	-0.20328498	0.0521141	-0.30010894
H	6.655249306486099	1.431314786691394	0.3755447878163394	0.11736242	0.24810887	-0.67772515
H	6.051642233931199	14.024781442235103	0.7562447496746267	-0.03076514	-0.41738054	0.03874879
H	14.08157386120865	1.1534748842856746	11.546961194950814	-0.97129428	-0.62543694	-0.49054253
H	11.399443816512841	2.0376347820072422	10.418631266970232	0.62097327	0.09856415	-0.64077865
H	12.468493811526136	1.208054836559637	12.144171235716238	-0.99722362	0.16060006	1.74237145
H	13.036613838215736	2.8326847554479047	10.289671242268344	-0.11773221	0.17018896	0.3369557
H	4.462122336468894	5.536284832470184	11.505511242081244	-0.16062273	0.59158723	-0.42917905
H	4.695982213900704	8.053026809282906	12.772151256989906	-0.3949401	0.74099915	0.51950653
H	1.840870646900698	9.355464794070896	11.590421183639766	0.86601047	-0.02557186	-0.19718788
H	2.4806322628292743	5.689754797722116	9.96511121079575	0.03599669	0.02642436	-0.66240652
H	5.632802272701993	4.211574807295928	11.092341198176292	-0.30504625	0.33139805	0.05108832
H	8.697262297545112	6.634937830691247	12.035571171069297	0.8614135	-0.14979257	-0.08594016
H	7.914221275130588	7.160288860728322	10.51839125731807	-0.00996202	0.26027228	0.83286745
H	6.588139330412004	8.632424887198772	14.117157715316711	0.51237674	-1.06338676	-0.19471697
H	5.4139623223598665	8.88660488020073	10.303931196603246	1.33747367	-1.29361393	0.98325432
H	11.009732338163806	8.143184877795841	12.442141146029618	0.72016115	-1.17774101	0.08695051
H	11.54375225143324	6.991662845760731	9.352791235816946	-0.76051214	0.32678497	0.71847884
H	1.976090757236834	12.883774768472255	12.07733120000129	-0.36996249	1.58088025	0.57775637
H	5.192632276987582	12.641191487344223	12.990591265189094	1.13217555	-0.04974837	-0.08624539
H	3.4075206666798192	10.86549483103332	9.476981164933925	-1.0729692	1.10501427	0.51694057
H	5.40312234271885	0.622444769409364	11.51644117516413	-0.10667489	-0.35721946	0.09383661
H	6.727069339962264	13.660881507528481	10.900841227790211	-0.16829486	0.12869358	-0.00770723
H	8.891732277998749	13.83464140840755	12.193651265379367	-0.40219655	-0.39370099	0.09997962
H	9.842592271351345	8.98414475565776	13.445571245101473	-0.00401011	0.12389821	-0.40497904
H	6.81939029506548	12.088891407145598	12.212571151101415	-0.5409414	-0.03113937	0.16015885
H	9.105382257494401	10.486744796761014	10.698211270675115	0.8267116	0.9771011	-0.20775711
H	13.596603771367112	13.205311418117375	11.394411144874299	-1.05742594	0.00749273	-0.46522965
H	10.06256222345238	14.03846144145817	0.1948548033943476	-0.02618697	-0.47029204	0.36746485
H	0.1639906892056188	9.374694856199282	11.360041191206015	0.36454873	0.3491537	-0.64227052
H	12.66865224607745	11.18970476427522	12.670951192309174	-0.66960603	-1.28518759	0.74509051
C	1.7330723381388116	2.9083648106514484	1.179191192668921	1.54106002	-0.45767179	-1.13180519
C	1.2075723392737174	4.127244771177919	1.7808311952863984	-1.48305744	1.23731663	0.92178913
C	0.5307922487255669	3.8590947975636376	3.1711212354959826	0.02821142	0.41267213	0.26142398
C	0.1944522811065352	1.521174818776481	4.247351154134637	0.85321783	-1.66100003	-1.03944914
C	14.210173835421726	2.5028348820279915	3.247071155636599	0.33447907	1.0114197	0.14029802
C	1.5649423229368937	4.067844796864574	4.371311255497983	-1.25123377	1.36739773	1.40305513
C	6.174062234472947	2.4032248616532033	3.061191260713906	0.47228093	0.74651982	1.52971288
C	6.524201309461388	2.796154872807054	4.527971266661625	-0.02225304	0.52976475	-0.06804276
C	4.115932246957085	8.986384762968251	0.24561114979910462	0.76384335	0.49865112	0.50071372
C	0.8942422482719237	8.142992828717869	3.400801252840482	-0.07021143	-1.84254215	1.8428974
C	2.9054322615805592	9.510084792727206	1.0320512397071668	1.04237377	1.77040761	-1.3205816
C	2.899942272293024	9.497934826886935	2.5763712449176275	0.67586833	0.17066281	-0.64609044
C	1.4313623037401155	9.472164780005395	3.071141200315551	-0.53278141	1.8143512	0.71820276
C	3.465262320301544	10.835834765778436	3.148511203602597	-1.2541579	-2.05844644	-0.95712094
C	9.113822234683546	10.44290489594105	3.446341175610713	1.03669968	1.83461227	-0.49528112
C	4.119942309688884	2.696254871043008	9.605921198449343	-1.44959503	-0.4791788	-1.56103732
C	6.906677236683992	1.5756148677486086	5.432451231109724	0.64469272	1.62657024	-1.50598945
C	5.718852291095899	0.9087848572750584	6.103898188364092	1.50709208	-4.30208535	-0.80172789
C	7.840122233099963	2.0641348697547213	6.539173238586593	0.29445957	-0.37137855	1.44688154
C	12.075933898906408	2.5507647640213973	7.952641145454083	-1.3524138	-0.36811563	0.70063669
C	14.17777387485978	1.3284048855073647	8.468081278750839	-0.59741236	-0.04313922	-1.6534699
C	11.992093832597936	0.10995480967198751	8.452011200461222	1.31272504	0.13955323	-1.55176213
C	0.49841071289379996	8.799314829375412	8.841431147718351	1.84460562	0.27989732	1.52513916
C	4.180052339060279	5.377324863811191	7.47014421895036	1.13501417	-1.07746168	0.06893821
C	4.820902319759086	5.048544756042683	8.829961169037945	0.23600237	0.21905801	-0.54829018
C	7.848210254419663	8.909884789626073	6.158879197060596	-1.43835221	0.33493684	0.77360271
C	10.389472211057411	8.917594874721846	5.847391274814997	-1.50364648	0.05722728	-2.14219929
C	8.891702247139321	10.942704778303193	4.918671216978455	-1.59103399	-2.28969812	-0.53973879
C	5.017382336721863	13.951221416661992	5.186721268443535	-1.1675647	1.69857483	0.08680833
C	9.082352215227594	9.831814763298496	6.041354272798897	1.47466264	0.12289297	0.25346146
C	11.686202254907803	9.660914825068453	5.678661265814031	1.7083993	0.3275439	0.17418288